! Touchstone file exported from HFSS 2023.1.0
!        File:           E:/1.Project/CoxailF/seventhree.aedt
!        Generated:      4:13:39 %x4E0B%x5348  5%x6708 24, 2023
!        Design:         Resonator_out1
!        Project:        seventhree
!        Setup:          Setup1
!        Solution:       Sweep
!
! Variables:
!        Hin1 = 26mm
!        Hout = 29mm
!        L12 = 15mm
!        L13 = 14.7mm
!        L23 = 6.6mm
!        L34 = 12.3mm
!        L45 = 7.7mm
!        L46 = 3.2mm
!        L56 = 10mm
!        L67 = 13mm
!        L78 = 8mm
!        L79 = 8.3mm
!        L89 = 16.5mm
!        Rin = 5mm
!        Rin2 = 4mm
!        Rout = 15mm
!        Rport = 1.15mm
!        Rport2 = 3mm
!        Rportin = 0.5mm
!        d = 3mm
!        d01 = 2.95mm
!        d02 = 3.9mm
!        d03 = 3.62mm
!        d04 = 3.67mm
!        d05 = 3.66mm
!        d06 = 3.4mm
!        d07 = 3.5mm
!        d08 = 4mm
!        d09 = 2.87mm
!        d12 = 18mm
!        d12x = 15.5mm
!        d12y = 25mm
!        d23 = 18mm
!        d34 = 30mm
!        hport = 10.4mm
!        hport2 = 10.4mm
!        lport = 12mm
!        lport2 = 1mm
!        lport_2 = 12mm
!        m = 2mm
!        w12 = 12mm
!        w13 = 10mm
!        w34 = 12mm
!
# GHz S MA R 50.000000
! Terminal data exported
! Port[1] = 1
! Port[2] = 2
1.8                            0.998432709717368 -90.7928278283759 1.19388076883326E-06 178.709172389893 1.19388076883326E-06 178.709172389893 0.998487170580613 -90.1824169508859 
! Gamma         0.0540019521537215 37.7797329598044 0.0538288613484927 37.7795343531907 
! Port Impedance         50               0                50               0                
1.8004                         0.998426673271672 -90.8856254260138 1.21665648454302E-06 178.616496566104 1.21665648452345E-06 178.616496565941 0.998481557946107 -90.2711360830798 
! Gamma         0.0540080092409798 37.7881224054947 0.0538348964302663 37.7879237762481 
! Port Impedance         50               0                50               0                
1.8008                         0.99842058768509 -90.9788507361023 1.23993521523906E-06 178.523398016789 1.23993521522015E-06 178.523398016321 0.998475900459422 -90.3602494374697 
! Gamma         0.0540140656564783 37.7965118505107 0.0538409308426608 37.7963131986336 
! Port Impedance         50               0                50               0                
1.8012                         0.998414452371883 -91.0725075971482 1.26372961622515E-06 178.429872963614 1.26372961618934E-06 178.429872962929 0.998470197585335 -90.4497605113931 
! Gamma         0.0540201214004406 37.8049012948524 0.0538469645858988 37.8047026203475 
! Port Impedance         50               0                50               0                
1.8016                         0.998408266737218 -91.1665998954358 1.28805270074688E-06 178.335917578521 1.28805270072464E-06 178.335917578055 0.998464448780152 -90.5396728459382 
! Gamma         0.0540261764730901 37.8132907385202 0.0538529976602027 37.8130920413899 
! Port Impedance         50               0                50               0                
1.802                          0.998402030176981 -91.2611315657902 1.31291785137793E-06 178.241527988483 1.31291785133831E-06 178.241527988381 0.99845865349155 -90.6299900266572 
! Gamma         0.05403223087465 37.8216801815143 0.0538590300657948 37.8214814617612 
! Port Impedance         50               0                50               0                
1.8024                         0.998395742077605 -91.3561065923565 1.33833883155123E-06 178.146700270117 1.33833883150362E-06 178.146700269526 0.998452811158403 -90.720715684295 
! Gamma         0.0540382846053435 37.8300696238349 0.0538650618028974 37.8298708814614 
! Port Impedance         50               0                50               0                
1.8028                         0.998389401815888 -91.4515290093933 1.36432979768688E-06 178.051430449963 1.36432979763977E-06 178.051430449376 0.998446921210601 -90.8118534955309 
! Gamma         0.0540443376653937 37.8384590654822 0.0538710928717326 37.838260300491  
! Port Impedance         50               0                50               0                
1.8032                         0.9983830087588  -91.547402902082 1.39090531170846E-06 177.955714506163 1.39090531166219E-06 177.955714505214 0.998440983068877 -90.9034071837372 
! Gamma         0.0540503900550234 37.8468485064565 0.0538771232725222 37.8466497188499 
! Port Impedance         50               0                50               0                
1.8036                         0.998376562263298 -91.643732407353 1.41808035389578E-06 177.859548363984 1.4180803538414E-06 177.859548362762 0.998434996144617 -90.995380519753 
! Gamma         0.0540564417744553 37.8552379467579 0.0538831530054882 37.8550391365386 
! Port Impedance         50               0                50               0                
1.804                          0.998370061676127 -91.7405217147273 1.44587033627799E-06 177.762927897245 1.44587033621506E-06 177.762927896199 0.998428959839675 -91.0877773226728 
! Gamma         0.0540624928239122 37.8636273863867 0.0538891820708522 37.8634285535572 
! Port Impedance         50               0                50               0                
1.8044                         0.99836350633362 -91.8377750671759 1.47429111650461E-06 177.665848927071 1.47429111645612E-06 177.665848925623 0.998422873546177 -91.1806014606533 
! Gamma         0.0540685432036166 37.8720168253432 0.0538952104688358 37.8718179699059 
! Port Impedance         50               0                50               0                
1.8048                         0.998356895561494 -91.9354967619953 1.50335901219037E-06 177.568307219939 1.50335901211936E-06 177.568307219071 0.998416736646326 -91.2738568517354 
! Gamma         0.0540745929137908 37.8804062636275 0.0539012381996605 37.880207385585  
! Port Impedance         50               0                50               0                
1.8052                         0.998350228674636 -92.0336911517021 1.53309081567565E-06 177.470298489965 1.53309081560129E-06 177.470298488592 0.998410548512194 -91.3675474646839 
! Gamma         0.0540806419546572 37.8887957012398 0.0539072652635477 37.8885968005946 
! Port Impedance         50               0                50               0                
1.8056                         0.998343504976896 -92.1323626449444 1.563503809515E-06 177.371818393308 1.56350380944613E-06 177.371818391629 0.998404308505519 -91.4616773198455 
! Gamma         0.0540866903264379 37.8971851381805 0.0539132916607186 37.8969862149351 
! Port Impedance         50               0                50               0                
1.806                          0.99833672376086 -92.2315157074321 1.59461578233357E-06 177.272862530399 1.59461578224281E-06 177.27286252862  0.998398015977488 -91.5562504900234 
! Gamma         0.0540927380293548 37.9055745744496 0.0539193173913943 37.9053756286066 
! Port Impedance         50               0                50               0                
1.8064                         0.998329884307625 -92.3311548628867 1.62644504531439E-06 177.173426444318 1.62644504519689E-06 177.173426442594 0.998391670268521 -91.6512711013714 
! Gamma         0.0540987850636301 37.9139640100475 0.0539253424557957 37.9137650416093 
! Port Impedance         50               0                50               0                
1.8068                         0.998322985886575 -92.4312846940097 1.65901044929717E-06 177.07350562038  1.65901044918906E-06 177.073505618848 0.998385270708044 -91.7467433343073 
! Gamma         0.0541048314294854 37.9223534449744 0.0539313668541438 37.9221544539435 
! Port Impedance         50               0                50               0                
1.8072                         0.998316027755136 -92.5319098434715 1.69233140251661E-06 176.973095483404 1.69233140240079E-06 176.973095481332 0.998378816614265 -91.8426714244445 
! Gamma         0.0541108771271423 37.9307428792304 0.0539373905866593 37.9305438656094 
! Port Impedance         50               0                50               0                
1.8076                         0.998309009158543 -92.6330350149201 1.72642788886719E-06 176.872191398452 1.72642788876492E-06 176.872191396887 0.99837230729393 -91.9390596635446 
! Gamma         0.0541169221568225 37.9391323128159 0.0539434136535628 37.9389332766073 
! Port Impedance         50               0                50               0                
1.808                          0.998301929329585 -92.7346649740113 1.76132048698638E-06 176.770788669138 1.76132048686626E-06 176.770788667632 0.99836574204209 -92.03591240049  
! Gamma         0.0541229665187474 37.947521745731  0.0539494360550747 37.9473226869372 
! Port Impedance         50               0                50               0                
1.8084                         0.998294787488354 -92.83680454946  1.79703038991684E-06 176.668882536569 1.79703038978406E-06 176.66888253476  0.998359120141848 -92.1332340422779 
! Gamma         0.0541290102131382 37.9559111779759 0.0539554577914156 37.9557120965995 
! Port Impedance         50               0                50               0                
1.8088                         0.998287582841988 -92.9394586341132 1.83357942551964E-06 176.566468178054 1.83357942539331E-06 176.566468175628 0.998352440864108 -92.2310290550349 
! Gamma         0.054135053240216 37.9643006095509 0.0539614788628057 37.9641015055945 
! Port Impedance         50               0                50               0                
1.8092                         0.998280314584401 -93.0426321860458 1.87099007764613E-06 176.463540705963 1.87099007751889E-06 176.463540704347 0.998345703467313 -92.3293019650552 
! Gamma         0.0541410956002021 37.9726900404562 0.053967499269465 37.9724909139222 
! Port Impedance         50               0                50               0                
1.8096                         0.998272981896011 -93.1463302296794 1.90928550815321E-06 176.360095167868 1.90928550801375E-06 176.360095165757 0.998338907197177 -92.4280573598599 
! Gamma         0.0541471372933173 37.981079470692  0.0539735190116137 37.9808803215829 
! Port Impedance         50               0                50               0                
1.81                           0.998265583943461 -93.250557856924 1.94848957951513E-06 176.256126543581 1.94848957937199E-06 176.256126541351 0.998332051286416 -92.5272998892806 
! Gamma         0.0541531783197823 37.9894689002586 0.0539795380894715 37.9892697285769 
! Port Impedance         50               0                50               0                
1.8104                         0.998258119879334 -93.3553202283456 1.98862687859745E-06 176.151629744572 1.98862687845388E-06 176.151629742841 0.99832513495446 -92.6270342665664 
! Gamma         0.054159218679818 37.9978583291561 0.0539855565032584 37.9976591349044 
! Port Impedance         50               0                50               0                
1.8108                         0.998250588841859 -93.4606225743565 2.02972274098845E-06 176.046599614011 2.02972274084556E-06 176.046599612299 0.99831815740717 -92.7272652695159 
! Gamma         0.0541652583736448 38.0062477573848 0.0539915742531939 38.0060485405655 
! Port Impedance         50               0                50               0                
1.8112                         0.998242989954607 -93.5664701964322 2.07180327650406E-06 175.941030923903 2.07180327633878E-06 175.941030922036 0.998311117836537 -92.8279977416339 
! Gamma         0.0541712974014831 38.0146371849449 0.0539975913394975 38.0144379455606 
! Port Impedance         50               0                50               0                
1.8116                         0.998235322326186 -93.6728684683546 2.1148953954141E-06 175.834918374519 2.11489539524985E-06 175.834918372547 0.998304015420385 -92.9292365933136 
! Gamma         0.0541773357635534 38.0230266118366 0.0540036077623888 38.0228273498898 
! Port Impedance         50               0                50               0                
1.812                          0.998227585049924 -93.779822837481 2.15902683589296E-06 175.728256593063 2.15902683571705E-06 175.728256590462 0.998296849322052 -93.0309868030467 
! Gamma         0.0541833734600757 38.0314160380602 0.054009623522087 38.0312167535533 
! Port Impedance         50               0                50               0                
1.8124                         0.998219777203548 -93.8873388260415 2.20422619228817E-06 175.621040131187 2.20422619210121E-06 175.621040129399 0.998289618690075 -93.1332534186592 
! Gamma         0.0541894104912702 38.0398054636159 0.0540156386188113 38.0396061565514 
! Port Impedance         50               0                50               0                
1.8128                         0.998211897848844 -93.9954220324637 2.25052294459817E-06 175.513263468108 2.25052294441413E-06 175.513263465617 0.998282322657857 -93.2360415585763 
! Gamma         0.0541954468573569 38.0481948885038 0.0540216530527807 38.0479955588843 
! Port Impedance         50               0                50               0                
1.8132                         0.998203946031322 -94.1040781327269 2.29794748898157E-06 175.404921001802 2.29794748879318E-06 175.404920999453 0.998274960343333 -93.3393564131152 
! Gamma         0.0542014825585554 38.0565843127243 0.0540276668242143 38.0563849605522 
! Port Impedance         50               0                50               0                
1.8136                         0.99819592077987 -94.2133128817456 2.34653116955127E-06 175.296007054877 2.34653116934365E-06 175.296007052811 0.998267530848623 -93.4432032458083 
! Gamma         0.0542075175950857 38.0649737362775 0.0540336799333307 38.0647743615554 
! Port Impedance         50               0                50               0                
1.814                          0.998187821106385 -94.3231321147832 2.39630631118674E-06 175.186515869328 2.39630631097609E-06 175.186515866992 0.998260033259675 -93.5475873947556 
! Gamma         0.0542135519671671 38.0733631591636 0.0540396923803488 38.073163761894  
! Port Impedance         50               0                50               0                
1.8144                         0.998179646005413 -94.4335417488976 2.44730625378698E-06 175.076441604477 2.4473062535769E-06 175.076441602226 0.998252466645898 -93.65251427401  
! Gamma         0.0542195856750193 38.0817525813829 0.054045704165487 38.0815531615683 
! Port Impedance         50               0                50               0                
1.8148                         0.998171394453775 -94.5445477844175 2.49956538778231E-06 174.965778338336 2.49956538755993E-06 174.965778335755 0.998244830059791 -93.7579893749927 
! Gamma         0.0542256187188615 38.0901420029357 0.0540517152889639 38.0899425605785 
! Port Impedance         50               0                50               0                
1.8152                         0.998163065410169 -94.6561563064534 2.55311919094032E-06 174.854520063325 2.55311919071638E-06 174.854520061372 0.998237122536549 -93.864018267943 
! Gamma         0.054231651098913 38.098531423822  0.0540577257509978 38.0983319589248 
! Port Impedance         50               0                50               0                
1.8156                         0.998154657814782 -94.76837348644  2.60800426676368E-06 174.74266068763  2.60800426652192E-06 174.742660685502 0.998229343093679 -93.970606603401 
! Gamma         0.0542376828153929 38.1069208440422 0.0540637355518069 38.1067213566074 
! Port Impedance         50               0                50               0                
1.816                          0.99814617058888 -94.8812055837155 2.66425838414569E-06 174.630194030255 2.66425838391692E-06 174.630194027601 0.998221490730577 -94.0777601137259 
! Gamma         0.0542437138685201 38.1153102635964 0.0540697446916094 38.1151107536266 
! Port Impedance         50               0                50               0                
1.8164                         0.998137602634388 -94.9946589471345 2.72192051885492E-06 174.517113820908 2.72192051862429E-06 174.517113818902 0.998213564428123 -94.1854846146495 
! Gamma         0.0542497442585136 38.1236996824849 0.0540757531706232 38.1235001499825 
! Port Impedance         50               0                50               0                
1.8168                         0.998128952833463 -95.1087400167192 2.78103089642143E-06 174.403413699763 2.78103089618707E-06 174.403413697722 0.998205563148243 -94.2937860068669 
! Gamma         0.054255773985592 38.1320891007079 0.0540817609890661 38.1318895456755 
! Port Impedance         50               0                50               0                
1.8172                         0.998120220048055 -95.2234553253458 2.84163103677592E-06 174.289087214145 2.84163103652837E-06 174.289087212001 0.998197485833468 -94.4026702776645 
! Gamma         0.054261803049974 38.1404785182656 0.0540877681471561 38.1402789407056 
! Port Impedance         50               0                50               0                
1.8176                         0.998111403119447 -95.3388115004721 2.90376380068038E-06 174.174127816081 2.90376380042424E-06 174.174127813896 0.998189331406477 -94.5121435025879 
! Gamma         0.054267831451878 38.1488679351582 0.0540937746451106 38.1486683350732 
! Port Impedance         50               0                50               0                
1.818                          0.998102500867802 -95.4548152659018 2.9674734380008E-06 174.058528862351 2.96747343773761E-06 174.058528859843 0.998181098769636 -94.6222118471484 
! Gamma         0.0542738591915226 38.157257351386  0.0540997804831472 38.1570577287784 
! Port Impedance         50               0                50               0                
1.8184                         0.998093512091673 -95.571473443592 3.03280563782785E-06 173.942283611546 3.03280563756333E-06 173.942283609489 0.998172786804505 -94.7328815685725 
! Gamma         0.0542798862691258 38.1656467669492 0.0541057856614833 38.1654471218216 
! Port Impedance         50               0                50               0                
1.8188                         0.998084435567526 -95.6887929555002 3.09980758069672E-06 173.825385222497 3.09980758042496E-06 173.825385220173 0.998164394371357 -94.8441590175919 
! Gamma         0.054285912684906 38.174036181848  0.0541117901803362 38.1738365142027 
! Port Impedance         50               0                50               0                
1.8192                         0.998075270049227 -95.8067808254757 3.16852799279334E-06 173.707826752487 3.16852799250206E-06 173.707826750287 0.998155920308655 -94.956050640279 
! Gamma         0.054291938439081 38.1824255960826 0.054117794039923 38.1822259059222 
! Port Impedance         50               0                50               0                
1.8196                         0.998066014267529 -95.9254441811946 3.23901720237938E-06 173.589601154672 3.23901720209904E-06 173.58960115252  0.998147363432539 -95.0685629799259 
! Gamma         0.0542979635318687 38.1908150096532 0.0541237972404608 38.1906152969803 
! Port Impedance         50               0                50               0                
1.82                           0.998056666929544 -96.0447902561391 3.31132719861331E-06 173.470701276715 3.31132719832414E-06 173.470701274571 0.998138722536281 -95.1817026789699 
! Gamma         0.0543039879634871 38.1992044225601 0.0541297997821665 38.199004687377  
! Port Impedance         50               0                50               0                
1.8204                         0.998047226718192 -96.1648263916252 3.3855116924933E-06 173.35111985877  3.38551169221053E-06 173.351119856621 0.99812999638973 -95.2954764809676 
! Gamma         0.0543100117341536 38.2075938348034 0.0541358016652569 38.2073940771127 
! Port Impedance         50               0                50               0                
1.8208                         0.998037692291642 -96.2855600388765 3.46162618051071E-06 173.230849530379 3.4616261802115E-06 173.230849528601 0.998121183738743 -95.4098912326164 
! Gamma         0.0543160348440859 38.2159832463835 0.0541418028899488 38.2157834661876 
! Port Impedance         50               0                50               0                
1.8212                         0.998028062282739 -96.4069987611482 3.53972801081056E-06 173.109882810118 3.53972801050673E-06 173.109882807773 0.998112283304599 -95.5249538858281 
! Gamma         0.0543220572935013 38.2243726573004 0.0541478034564587 38.2241728546019 
! Port Impedance         50               0                50               0                
1.8216                         0.998018335298408 -96.5291502359012 3.61987645202771E-06 172.988212100925 3.61987645170196E-06 172.98821209897  0.998103293783387 -95.6406714998531 
! Gamma         0.0543280790826173 38.2327620675545 0.054153803365003 38.2325622423558 
! Port Impedance         50               0                50               0                
1.822                          0.998008509919047 -96.652022257028 3.70213276501025E-06 172.865829690324 3.70213276470175E-06 172.865829688305 0.998094213845392 -95.757051243459 
! Gamma         0.0543341002116509 38.2411514771459 0.054159802615798 38.2409516294495 
! Port Impedance         50               0                50               0                
1.8224                         0.9979985846979  -96.7756227371329 3.7865602774897E-06 172.742727746896 3.78656027716426E-06 172.742727744635 0.998085042134444 -95.8741003971643 
! Gamma         0.0543401206808191 38.2495408860749 0.0541658012090601 38.2493410158833 
! Port Impedance         50               0                50               0                
1.8228                         0.997988558160417 -96.8999597098665 3.87322446180152E-06 172.618898316579 3.8732244614637E-06 172.618898314741 0.998075777267261 -95.9918263555284 
! Gamma         0.0543461404903391 38.2579302943416 0.0541717991450054 38.2577304016574 
! Port Impedance         50               0                50               0                
1.8232                         0.997978428803588 -97.0250413323166 3.96219301585055E-06 172.494333323815 3.9621930155218E-06 172.494333321715 0.99806641783277 -96.110236629501 
! Gamma         0.0543521596404275 38.2663197019464 0.0541777964238497 38.2661197867719 
! Port Impedance         50               0                50               0                
1.8236                         0.997968195095263 -97.1508758874585 4.05353594758355E-06 172.36902456478  4.05353594723824E-06 172.369024562965 0.998056962391403 -96.2293388488315 
! Gamma         0.0543581781313012 38.2747091088894 0.054183793045809 38.2745091712271 
! Port Impedance         50               0                50               0                
1.824                          0.997957855473456 -97.2774717866633 4.14732566272036E-06 172.242963708553 4.14732566235744E-06 172.242963706581 0.998047409474373 -96.3491407645399 
! Gamma         0.0543641959631765 38.2830985151708 0.0541897890110992 38.2828985550233 
! Port Impedance         50               0                50               0                
1.8244                         0.997947408345619 -97.4048375722699 4.24363705645646E-06 172.116142291268 4.24363705610523E-06 172.11614228934  0.998037757582931 -96.4696502514536 
! Gamma         0.0543702131362701 38.2914879207909 0.0541957843199357 38.2912879381606 
! Port Impedance         50               0                50               0                
1.8248                         0.997936852087907 -97.532981920219 4.34254760888269E-06 171.988551716023 4.34254760854254E-06 171.988551714206 0.998028005187596 -96.5908753108086 
! Gamma         0.0543762296507983 38.2998773257498 0.0542017789725341 38.2996773206392 
! Port Impedance         50               0                50               0                
1.8252                         0.997926185044411 -97.6619136427533 4.44413748449217E-06 171.860183248645 4.44413748413526E-06 171.860183247088 0.998018150727366 -96.7128240729203 
! Gamma         0.0543822455069773 38.3082667300478 0.0542077729691099 38.3080667024594 
! Port Impedance         50               0                50               0                
1.8256                         0.997915405526374 -97.7916416911841 4.54848963591041E-06 171.731028015422 4.54848963554854E-06 171.731028013538 0.998008192608895 -96.835504799924 
! Gamma         0.0543882607050233 38.3166561336852 0.0542137663098783 38.3164560836214 
! Port Impedance         50               0                50               0                
1.826                          0.997904511811389 -97.9221751587279 4.65568991206155E-06 171.601076999612 4.65568991168433E-06 171.601076997851 0.997998129205661 -96.9589258885879 
! Gamma         0.0543942752451521 38.325045536662  0.0542197589950546 38.3248454641254 
! Port Impedance         50               0                50               0                
1.8264                         0.99789350214256 -98.0535232834142 4.7658271709394E-06 171.470321039303 4.76582717058701E-06 171.470321037415 0.99798795885709 -97.0830958732016 
! Gamma         0.0544002891275797 38.3334349389786 0.0542257510248537 38.3332348439716 
! Port Impedance         50               0                50               0                
1.8268                         0.997882374727648 -98.1856954510663 4.87899339739156E-06 171.338750823282 4.87899339701707E-06 171.338750821626 0.997977679867662 -97.2080234285418 
! Gamma         0.0544063023525219 38.3418243406352 0.0542317423994907 38.3416242231602 
! Port Impedance         50               0                50               0                
1.8272                         0.997871127738197 -98.3187011983583 4.99528382564644E-06 171.206356889259 4.99528382528065E-06 171.206356887512 0.997967290505989 -97.3337173729177 
! Gamma         0.0544123149201942 38.3502137416319 0.0542377331191804 38.3500136016915 
! Port Impedance         50               0                50               0                
1.8276                         0.997859759308616 -98.4525502159498 5.11479706763775E-06 171.073129619259 5.11479706727673E-06 171.073129617719 0.997956789003858 -97.4601866712985 
! Gamma         0.0544183268308122 38.358603141969  0.0542437231841375 38.3584029795657 
! Port Impedance         50               0                50               0                
1.828                          0.99784826753525 -98.5872523517007 5.23763524648268E-06 170.939059237295 5.23763524610355E-06 170.93905923568  0.997946173555251 -97.5874404385265 
! Gamma         0.0544243380845914 38.3669925416468 0.0542497125945767 38.3667923567829 
! Port Impedance         50               0                50               0                
1.8284                         0.997836650475418 -98.7228176139692 5.36390413600451E-06 170.804135805226 5.36390413560826E-06 170.804135803828 0.997935442315323 -97.7154879426179 
! Gamma         0.0544303486817468 38.3753819406653 0.0542557013507124 38.3751817333434 
! Port Impedance         50               0                50               0                
1.8288                         0.997824906146419 -98.8592561749952 5.49371330643916E-06 170.668349220169 5.49371330604672E-06 170.668349218676 0.997924593399362 -97.8443386081542 
! Gamma         0.0544363586224939 38.3837713390249 0.054261689452759 38.3835711092475 
! Port Impedance         50               0                50               0                
1.8292                         0.99781303252451 -98.9965783743706 5.62717627646761E-06 170.53168920986  5.62717627606679E-06 170.531689208367 0.997913624881696 -97.9740020197676 
! Gamma         0.0544423679070475 38.3921607367257 0.0542676769009307 38.3919604844952 
! Port Impedance         50               0                50               0                
1.8296                         0.997801027543853 -99.1347947226018 5.764410671923E-06 170.394145329456 5.76441067153949E-06 170.39414532806  0.997902534794585 -98.1044879257227 
! Gamma         0.0544483765356226 38.4005501337681 0.0542736636954418 38.4003498590869 
! Port Impedance         50               0                50               0                
1.83                           0.99778888909543 -99.2739159047646 5.90553839175927E-06 170.25570695829  5.90553839137375E-06 170.25570695685  0.997891321127056 -98.2358062415991 
! Gamma         0.0544543845084341 38.4089395301521 0.0542796498365063 38.4087392330228 
! Port Impedance         50               0                50               0                
1.8304                         0.997776615025924 -99.4139527842555 6.05068578125499E-06 170.116363294878 6.05068578082995E-06 170.116363293647 0.997879981823718 -98.3679670540764 
! Gamma         0.0544603918256966 38.417328925878  0.0542856353243381 38.417128606303  
! Port Impedance         50               0                50               0                
1.8308                         0.997764203136564 -99.5549164066431 6.19998381297118E-06 169.976103353974 6.19998381256998E-06 169.976103352791 0.997868514783522 -98.5009806248271 
! Gamma         0.0544663984876247 38.425718320946  0.0542916201591511 38.4255179789279 
! Port Impedance         50               0                50               0                