! Touchstone file exported from HFSS 2023.1.0
!        File:           E:/1.Project/CoxailF/seventhree.aedt
!        Generated:      3:13:21 %x4E0B%x5348  5%x6708 25, 2023
!        Design:         Resonator_out14
!        Project:        seventhree
!        Setup:          Setup1
!        Solution:       Sweep
!
! Variables:
!        Hin1 = 26mm
!        Hout = 29mm
!        L12 = 14.8mm
!        L13 = 14.8mm
!        L23 = 6.95mm
!        L34 = 12.5mm
!        L45 = 8.55mm
!        L46 = 3.85mm
!        L56 = 8.25mm
!        L67 = 12.5mm
!        L78 = 7.8mm
!        L79 = 13.2mm
!        L89 = 15.3mm
!        Rin = 5mm
!        Rin2 = 4mm
!        Rout = 15mm
!        Rport = 1.15mm
!        Rport2 = 3mm
!        Rportin = 0.5mm
!        d = 3mm
!        d01 = 2.9mm
!        d02 = 3.53mm
!        d03 = 3.66mm
!        d04 = 3.72mm
!        d05 = 3.73mm
!        d06 = 3.74mm
!        d07 = 3.67mm
!        d08 = 3.545mm
!        d09 = 2.915mm
!        d12 = 18mm
!        d12x = 15.5mm
!        d12y = 25mm
!        d23 = 18mm
!        d34 = 30mm
!        hport = 10.4mm
!        hport2 = 10.4mm
!        lport = 12mm
!        lport2 = 1mm
!        lport_2 = 12mm
!        m = 2mm
!        w12 = 12mm
!        w13 = 10mm
!        w34 = 12mm
!        w46 = 8.5mm
!
# GHz S MA R 50.000000
! Terminal data exported
! Port[1] = 1
! Port[2] = 2
1.8                            0.998482382821113 -90.1453950613552 1.23926138669846E-06 178.965479587286 1.23926138669845E-06 178.965479587286 0.99848260229454 -90.3016978099604 
! Gamma         0.054040356089151 37.779795684672  0.0538442448517187 37.779555959767  
! Port Impedance         50               0                50               0                
1.8004                         0.99847686735648 -90.2340337973978 1.26313871681061E-06 178.874747562634 1.26313871679113E-06 178.874747564988 0.998477034865356 -90.3907570852011 
! Gamma         0.054046420077172 37.7881851379824 0.0538502823182019 37.7879453853767 
! Port Impedance         50               0                50               0                
1.8008                         0.998471309883924 -90.3230574613624 1.28754614322648E-06 178.783617354308 1.2875461431704E-06 178.783617355489 0.998471424743526 -90.4802056609302 
! Gamma         0.0540524833927575 37.7965745906175 0.0538563191150527 37.7963348103143 
! Port Impedance         50               0                50               0                
1.8012                         0.998465709935828 -90.4124693078479 1.31249701521068E-06 178.692085578395 1.31249701520478E-06 178.692085577849 0.998465771450557 -90.5700468497167 
! Gamma         0.0540585460361314 37.8049640425775 0.0538623552424937 37.8047242345799 
! Port Impedance         50               0                50               0                
1.8016                         0.998460067037861 -90.5022726292502 1.33800505865117E-06 178.600148810934 1.33800505861414E-06 178.60014881063  0.998460074501033 -90.6602840028627 
! Gamma         0.0540646080075171 37.8133534938627 0.0538683907007477 37.8131136581739 
! Port Impedance         50               0                50               0                
1.802                          0.998454380708852 -90.5924707563194 1.3640843875728E-06 178.507803590024 1.36408438751557E-06 178.50780359205  0.998454333402488 -90.7509205109792 
! Gamma         0.0540706693071381 37.8217429444734 0.053874425490037 37.8215030810964 
! Port Impedance         50               0                50               0                
1.8024                         0.998448650460675 -90.6830670587288 1.39074951647775E-06 178.415046415564 1.39074951645239E-06 178.415046416177 0.998448547655285 -90.8419598045733 
! Gamma         0.0540767299352179 37.8301323944096 0.0538804596105843 37.8298925033477 
! Port Impedance         50               0                50               0                
1.8028                         0.998442875798125 -90.7740649456527 1.41801537306557E-06 178.321873740304 1.41801537300189E-06 178.32187374187  0.998442716752487 -90.9334053546449 
! Gamma         0.0540827898919797 37.8385218436717 0.0538864930626115 37.8382819249279 
! Port Impedance         50               0                50               0                
1.8032                         0.998437056218789 -90.8654678663557 1.44589731090151E-06 178.228281981625 1.44589731093342E-06 178.228281980919 0.998436840179724 -91.0252606732953 
! Gamma         0.0540888491776466 37.8469112922598 0.0538925258463411 37.8466713458374 
! Port Impedance         50               0                50               0                
1.8036                         0.998431191212921 -90.957279310792 1.47441112331634E-06 178.13426750711  1.47441112334199E-06 178.134267506532 0.998430917415062 -91.1175293143462 
! Gamma         0.0540949077924415 37.8553007401743 0.0538985579619949 37.8550607660763 
! Port Impedance         50               0                50               0                
1.804                          0.99842528026331 -91.0495028102157 1.50357305706669E-06 178.039826649141 1.50357305705366E-06 178.039826649604 0.998424947928866 -91.2102148739705 
! Gamma         0.0541009657365874 37.8636901874153 0.0539045894097949 37.8634501856448 
! Port Impedance         50               0                50               0                
1.8044                         0.998419322845144 -91.1421419378033 1.53339982678414E-06 177.94495568977  1.53339982673982E-06 177.944955689829 0.99841893118366 -91.3033209913346 
! Gamma         0.0541070230103069 37.872079633983  0.0539106201899629 37.8718396045433 
! Port Impedance         50               0                50               0                
1.8048                         0.998413318425876 -91.2352003092857 1.56390863015603E-06 177.849650868733 1.56390863014133E-06 177.849650870688 0.998412866633983 -91.3968513492527 
! Gamma         0.0541130796138228 37.8804690798776 0.0539166503027204 37.8802290227718 
! Port Impedance         50               0                50               0                
1.8052                         0.998407266465082 -91.3286815835937 1.59511716313203E-06 177.753908385518 1.59511716309343E-06 177.75390838592  0.998406753726248 -91.4908096748529 
! Gamma         0.0541191355473574 37.8888585250995 0.0539226797482891 37.8886184403306 
! Port Impedance         50               0                50               0                
1.8056                         0.998401166414319 -91.4225894635146 1.62704363597102E-06 177.657724384407 1.6270436359749E-06 177.657724386546 0.998400591898591 -91.5851997402561 
! Gamma         0.0541251908111332 37.8972479696488 0.0539287085268903 37.89700785722   
! Port Impedance         50               0                50               0                
1.806                          0.998395017716978 -91.5169276963602 1.65970679009276E-06 177.561094972406 1.65970679009249E-06 177.561094972626 0.998394380580716 -91.6800253632673 
! Gamma         0.0541312454053725 37.9056374135257 0.0539347366387454 37.9053972734402 
! Port Impedance         50               0                50               0                
1.8064                         0.998388819808139 -91.6117000746492 1.69312591477728E-06 177.464016199538 1.69312591473658E-06 177.464016201213 0.998388119193748 -91.7752904080802 
! Gamma         0.0541372993302972 37.9140268567305 0.0539407640840754 37.9137866889913 
! Port Impedance         50               0                50               0                
1.8068                         0.998382572114411 -91.7069104368004 1.72732086539027E-06 177.366484078862 1.7273208653555E-06 177.366484080729 0.998381807150063 -91.8709987859946 
! Gamma         0.0541433525861295 37.9224162992634 0.0539467908631015 37.9221761038737 
! Port Impedance         50               0                50               0                
1.8072                         0.998376274053787 -91.8025626678397 1.76231208143484E-06 177.268494569119 1.7623120813818E-06 177.268494570085 0.998375443853139 -91.9671544561475 
! Gamma         0.0541494051730911 37.9308057411245 0.0539528169760446 37.9305655180875 
! Port Impedance         50               0                50               0                
1.8076                         0.998369925035475 -91.8986607001207 1.79812060585751E-06 177.170043574314 1.79812060579088E-06 177.170043575549 0.998369028697379 -92.0637614262586 
! Gamma         0.0541554570914039 37.9391951823142 0.0539588424231254 37.9389549316329 
! Port Impedance         50               0                50               0                
1.808                          0.99836352445974 -91.995208514058 1.83476810465046E-06 177.071126958316 1.83476810462921E-06 177.071126959397 0.998362561067949 -92.1608237533887 
! Gamma         0.0541615083412895 37.9475846228327 0.0539648672045647 37.9473443445102 
! Port Impedance         50               0                50               0                
1.8084                         0.998357071717739 -92.0922101388753 1.87227688742884E-06 176.971740527835 1.87227688741344E-06 176.971740529205 0.998356040340603 -92.2583455447142 
! Gamma         0.0541675589229694 37.9559740626801 0.0539708913205829 37.9557337567197 
! Port Impedance         50               0                50               0                
1.8088                         0.998350566191351 -92.189669653367 1.91066992849701E-06 176.87188003991  1.91066992848382E-06 176.871880039986 0.998349465881505 -92.3563309583149 
! Gamma         0.054173608836665 37.9643635018567 0.0539769147714005 37.9641231682614 
! Port Impedance         50               0                50               0                
1.8092                         0.998344007252999 -92.2875911866746 1.94997088894352E-06 176.771541197091 1.94997088892006E-06 176.771541199072 0.998342837047049 -92.4547842039779 
! Gamma         0.0541796580825974 37.9727529403628 0.0539829375572379 37.9725125791357 
! Port Impedance         50               0                50               0                
1.8096                         0.998337394265481 -92.3859789190782 1.99020413922264E-06 176.670719650878 1.99020413920898E-06 176.670719651139 0.998336153183676 -92.5537095440168 
! Gamma         0.054185706660988 37.9811423781985 0.0539889596783152 37.9809019893428 
! Port Impedance         50               0                50               0                
1.81                           0.998330726581777 -92.4848370828024 2.03139478307592E-06 176.569410996377 2.03139478306718E-06 176.569410997384 0.998329413627682 -92.6531112941062 
! Gamma         0.0541917545720576 37.989531815364  0.0539949811348525 37.9892913988828 
! Port Impedance         50               0                50               0                
1.8104                         0.998324003544877 -92.5841699628383 2.07356868158449E-06 176.467610774665 2.07356868152567E-06 176.467610774381 0.998322617705026 -92.7529938241331 
! Gamma         0.0541978018160271 37.9979212518597 0.0540010019270696 37.997680807756  
! Port Impedance         50               0                50               0                
1.8108                         0.998317224487584 -92.6839818977817 2.11675247861317E-06 176.3653144707   2.11675247863507E-06 176.365314469841 0.998315764731132 -92.8533615590647 
! Gamma         0.0542038483931174 38.0063106876856 0.0540070220551866 38.0060702159627 
! Port Impedance         50               0                50               0                
1.8112                         0.998310388732318 -92.7842772806865 2.16097362755719E-06 176.262517511394 2.160973627574E-06 176.262517512656 0.998308854010691 -92.9542189798327 
! Gamma         0.0542098943035491 38.0147001228421 0.0540130415194229 38.014459623503  
! Port Impedance         50               0                50               0                
1.8116                         0.998303495590925 -92.8850605599356 2.20626041789287E-06 176.159215267442 2.20626041787252E-06 176.15921526758  0.998301884837446 -93.0555706242359 
! Gamma         0.0542159395475426 38.0230895573294 0.0540190603199984 38.0228490303772 
! Port Impedance         50               0                50               0                
1.812                          0.998296544364469 -92.9863362401284 2.25264200390948E-06 176.055403048696 2.25264200387298E-06 176.055403049822 0.998294856493988 -93.1574210878589 
! Gamma         0.0542219841253185 38.0314789911476 0.0540250784571323 38.0312384365855 
! Port Impedance         50               0                50               0                
1.8124                         0.998289534343026 -93.0881088829859 2.30014843381142E-06 175.951076110011 2.30014843376399E-06 175.951076110178 0.998287768251537 -93.2597750250112 
! Gamma         0.0542280280370969 38.039868424297  0.054031095931044 38.0396278421281 
! Port Impedance         50               0                50               0                
1.8128                         0.998282464805473 -93.1903831082733 2.34881068024051E-06 175.84622963673  2.34881068020608E-06 175.846229636997 0.99828061936972 -93.3626371496832 
! Gamma         0.0542340712830981 38.0482578567778 0.0540371127419528 38.0480172470052 
! Port Impedance         50               0                50               0                
1.8132                         0.998275335019271 -93.2931635947406 2.39866067182395E-06 175.74085876197  2.39866067181028E-06 175.740858762026 0.998273409096344 -93.4660122365212 
! Gamma         0.054240113863542 38.0566472885903 0.0540431288900777 38.0564066512171 
! Port Impedance         50               0                50               0                
1.8136                         0.99826814424024 -93.3964550810831 2.44973132575428E-06 175.634958550745 2.4497313257566E-06 175.634958550037 0.998266136667168 -93.5699051218234 
! Gamma         0.0542461557786486 38.0650367197346 0.0540491443756377 38.064796054764  
! Port Impedance         50               0                50               0                
1.814                          0.998260891712339 -93.500262366919 2.5020565819233E-06 175.528524003605 2.50205658185832E-06 175.528524004732 0.998258801305662 -93.6743207045542 
! Gamma         0.0542521970286376 38.073426150211  0.0540551591988517 38.073185457646  
! Port Impedance         50               0                50               0                
1.8144                         0.998253576667426 -93.604590313788 2.55567143799437E-06 175.421550061193 2.55567143798301E-06 175.421550060561 0.998251402222766 -93.7792639473799 
! Gamma         0.0542582376137288 38.0818155800197 0.0540611733599385 38.0815748598634 
! Port Impedance         50               0                50               0                
1.8148                         0.998246198325025 -93.7094438461696 2.61061198607759E-06 175.31403159358  2.61061198603175E-06 175.314031593047 0.998243938616641 -93.8847398777245 
! Gamma         0.0542642775341417 38.090205009161  0.0540671868591165 38.0899642614165 
! Port Impedance         50               0                50               0                
1.8152                         0.998238755892082 -93.8148279525211 2.66691545081263E-06 175.205963405253 2.6669154507715E-06 175.205963405253 0.998236409672416 -93.9907535888479 
! Gamma         0.0542703167900957 38.098594437635  0.0540731996966043 38.0983536623055 
! Port Impedance         50               0                50               0                
1.8156                         0.998231248562714 -93.9207476863375 2.72462022844183E-06 175.097340234664 2.72462022840058E-06 175.097340234661 0.998228814561926 -94.0973102409453 
! Gamma         0.0542763553818101 38.1069838654419 0.0540792118726203 38.1067430625305 
! Port Impedance         50               0                50               0                
1.816                          0.99822367551796 -94.0272081672325 2.78376592808555E-06 174.988156746748 2.78376592803853E-06 174.98815674645  0.998221152443449 -94.204415062269 
! Gamma         0.054282393309504 38.115373292582  0.0540852233873828 38.1151324620918 
! Port Impedance         50               0                50               0                
1.8164                         0.99821603592551 -94.1342145820406 2.84439341402719E-06 174.878407540759 2.84439341403252E-06 174.878407541117 0.998213422461427 -94.3120733502738 
! Gamma         0.0542884305733967 38.1237627190556 0.0540912342411098 38.1235218609895 
! Port Impedance         50               0                50               0                
1.8168                         0.99820832893945 -94.2417721859434 2.90654484995282E-06 174.768087140951 2.90654484991587E-06 174.768087141431 0.998205623746193 -94.4202904727854 
! Gamma         0.0542944671737068 38.1321521448627 0.0540972444340194 38.1319112592241 
! Port Impedance         50               0                50               0                
1.8172                         0.99820055369998 -94.3498863036172 2.97026374465449E-06 174.657190001172 2.9702637446601E-06 174.657190001451 0.998197755413684 -94.5290718691925 
! Gamma         0.0543005031106535 38.1405415700037 0.0541032539663295 38.1403006567956 
! Port Impedance         50               0                50               0                
1.8176                         0.998192709333137 -94.4585623304054 3.03559499985912E-06 174.545710500351 3.03559499983242E-06 174.545710500105 0.998189816565142 -94.6384230516656 
! Gamma         0.0543065383844552 38.1489309944788 0.0541092628382578 38.1486900537042 
! Port Impedance         50               0                50               0                
1.818                          0.998184794950509 -94.5678057335142 3.1025849594647E-06 174.4336429407   3.10258495941896E-06 174.433642941394 0.998181806286824 -94.7483496063981 
! Gamma         0.0543125729953306 38.1573204182882 0.054115271050022 38.1570794499502 
! Port Impedance         50               0                50               0                
1.8184                         0.998176809648942 -94.6776220532335 3.17128146114154E-06 174.320981549708 3.17128146107889E-06 174.320981550866 0.998173723649686 -94.8588571948759 
! Gamma         0.0543186069434981 38.165709841432  0.0541212786018397 38.1654688455339 
! Port Impedance         50               0                50               0                
1.8188                         0.998168752510236 -94.7880169041831 3.241733889525E-06 174.207720477865 3.24173388951376E-06 174.207720478593 0.998165567709071 -94.9699515551727 
! Gamma         0.0543246402291761 38.1740992639106 0.0541272854939282 38.1738582404553 
! Port Impedance         50               0                50               0                
1.8192                         0.998160622600842 -94.8989959765849 3.31399323205752E-06 174.09385379407  3.31399323204871E-06 174.09385379436  0.998157337504388 -95.0816385032718 
! Gamma         0.0543306728525827 38.1824886857242 0.0541332917265048 38.1822476347148 
! Port Impedance         50               0                50               0                
1.8196                         0.998152418971542 -95.0105650375616 3.38811213641697E-06 173.979375486557 3.3881121363885E-06 173.979375486566 0.998149032058783 -95.1939239344174 
! Gamma         0.0543367048139362 38.1908781068729 0.0541392972997868 38.1906370283126 
! Port Impedance         50               0                50               0                
1.82                           0.99814414065713 -95.1227299324623 3.46414497054713E-06 173.864279464385 3.46414497053304E-06 173.86427946436  0.998140650378795 -95.3068138244926 
! Gamma         0.0543427361134544 38.1992675273569 0.0541453022139911 38.1990264212488 
! Port Impedance         50               0                50               0                
1.8204                         0.998135786676078 -95.2354965862171 3.54214788515999E-06 173.748559550758 3.54214788515331E-06 173.748559550689 0.99813219145401 -95.4203142314288 
! Gamma         0.0543487667513552 38.2076569471766 0.0541513064693347 38.2074158135238 
! Port Impedance         50               0                50               0                
1.8208                         0.998127356030199 -95.3488710047192 3.62217887861788E-06 173.632209485521 3.62217887859583E-06 173.632209485596 0.998123654256714 -95.5344312966436 
! Gamma         0.0543547967278563 38.2160463663321 0.0541573100660345 38.2158052051376 
! Port Impedance         50               0                50               0                
1.8212                         0.998118847704296 -95.4628592762373 3.70429786417043E-06 173.515222920451 3.70429786410606E-06 173.515222920393 0.998115037741514 -95.6491712465106 
! Gamma         0.0543608260431753 38.2244357848237 0.0541633130043071 38.2241945960906 
! Port Impedance         50               0                50               0                
1.8216                         0.998110260665812 -95.5774675728572 3.78856674035029E-06 173.397593421124 3.78856674039896E-06 173.397593421373 0.998106340844978 -95.7645403938596 
! Gamma         0.0543668546975298 38.2328252026515 0.054169315284369 38.2325839863829 
! Port Impedance         50               0                50               0                
1.822                          0.998101593864457 -95.6927021519553 3.87504946400702E-06 173.279314463368 3.87504946396497E-06 173.279314463188 0.998097562485242 -95.8805451395107 
! Gamma         0.0543728826911371 38.2412146198158 0.0541753169064368 38.2409733760148 
! Port Impedance         50               0                50               0                
1.8224                         0.998092846231841 -95.8085693577029 3.9638121260996E-06 173.160379430475 3.96381212605141E-06 173.160379431022 0.998088701561624 -95.9971919738411 
! Gamma         0.0543789100242145 38.2496040363168 0.0541813178707269 38.2493627649865 
! Port Impedance         50               0                50               0                
1.8228                         0.998084016681086 -95.9250756226033 4.05492303071249E-06 173.040781615991 4.0549230306667E-06 173.040781616221 0.998079756954216 -96.1144874783853 
! Gamma         0.054384936696979 38.2579934521547 0.0541873181774553 38.2577521532982 
! Port Impedance         50               0                50               0                
1.8232                         0.998075104106434 -96.0422274690625 4.14845277756199E-06 172.920514217558 4.14845277757552E-06 172.920514217682 0.998070727523475 -96.2324383274715 
! Gamma         0.0543909627096477 38.2663828673297 0.0541933178268382 38.2661415409501 
! Port Impedance         50               0                50               0                
1.8236                         0.998066107382843 -96.1600315109934 4.24447434748644E-06 172.799570334976 4.24447434745248E-06 172.799570335464 0.998061612109799 -96.3510512898936 
! Gamma         0.0543969880624376 38.2747722818421 0.0541993168190917 38.2745309279424 
! Port Impedance         50               0                50               0                
1.824                          0.998057025365575 -96.2784944554555 4.34306319151567E-06 172.677942974503 4.34306319147939E-06 172.677942974441 0.998052409533087 -96.470333230619 
! Gamma         0.0544030127555652 38.283161695692  0.0542053151544316 38.2829203142754 
! Port Impedance         50               0                50               0                
1.8244                         0.998047856889771 -96.3976231043309 4.44429732379389E-06 172.555625039327 4.44429732379104E-06 172.555625039608 0.998043118592301 -96.5902911125361 
! Gamma         0.0544090367892475 38.2915511088798 0.0542113128330735 38.2913096999493 
! Port Impedance         50               0                50               0                
1.8248                         0.998038600770016 -96.5174243560359 4.54825741817567E-06 172.432609333427 4.5482574181387E-06 172.432609333412 0.998033738065004 -96.7109319982392 
! Gamma         0.0544150601637007 38.2999405214055 0.0542173098552332 38.2996990849642 
! Port Impedance         50               0                50               0                
1.8252                         0.998029255799893 -96.6379052072721 4.65502690892753E-06 172.308888556811 4.65502690895356E-06 172.308888555799 0.998024266706894 -96.8322630518538 
! Gamma         0.0544210828791414 38.3083299332695 0.0542233062211262 38.3080884693205 
! Port Impedance         50               0                50               0                
1.8256                         0.998019820751524 -96.7590727548152 4.76469209556338E-06 172.18445530394  4.76469209554007E-06 172.184455303362 0.998014703251317 -96.9542915409028 
! Gamma         0.0544271049357859 38.3167193444719 0.0542293019309679 38.3164778530183 
! Port Impedance         50               0                50               0                
1.826                          0.998010294375103 -96.8809341973437 4.87734225222202E-06 172.059302063757 4.87734225213776E-06 172.059302063266 0.998005046408779 -97.0770248382144 
! Gamma         0.0544331263338503 38.325108755013  0.0542352969849735 38.3248672360578 
! Port Impedance         50               0                50               0                
1.8264                         0.998000675398411 -97.0034968373095 4.99306974098809E-06 171.933421215998 4.9930697409828E-06 171.933421215816 0.997995294866435 -97.2004704238737 
! Gamma         0.0544391470735507 38.3334981648929 0.0542412913833581 38.3332566184393 
! Port Impedance         50               0                50               0                
1.8268                         0.997990962526323 -97.1267680828492 5.1119701313215E-06 171.806805027196 5.11197013129228E-06 171.806805028293 0.997985447287573 -97.3246358872183 
! Gamma         0.054445167155103 38.341887574112  0.0542472851263369 38.3416460001629 
! Port Impedance         50               0                50               0                
1.8272                         0.997981154440303 -97.2507554497396 5.23414232299504E-06 171.679445655915 5.23414232297801E-06 171.679445656054 0.997975502311072 -97.4495289288792 
! Gamma         0.0544511865787231 38.3502769826703 0.0542532782141248 38.350035381229  
! Port Impedance         50               0                50               0                
1.8276                         0.997971249797878 -97.3754665633971 5.35968867524941E-06 171.551335139704 5.3596886752196E-06 171.551335139657 0.997965458550862 -97.5751573628685 
! Gamma         0.0544572053446266 38.3586663905682 0.0542592706469365 38.3584247616376 
! Port Impedance         50               0                50               0                
1.828                          0.997961247232107 -97.5009091609222 5.48871514116628E-06 171.422465402639 5.4887151411227E-06 171.422465403009 0.997955314595353 -97.7015291187155 
! Gamma         0.0544632234530292 38.3670557978058 0.0542652624249868 38.366814141389  
! Port Impedance         50               0                50               0                
1.8284                         0.99795114535103 -97.6270910931911 5.62133140773357E-06 171.292828248451 5.62133140774397E-06 171.29282824878  0.997945069006861 -97.8286522436516 
! Gamma         0.0544692409041462 38.3754452043834 0.0542712535484902 38.3752035204835 
! Port Impedance         50               0                50               0                
1.8288                         0.997940942737107 -97.7540203269959 5.75765104204483E-06 171.162415358734 5.75765104203906E-06 171.16241535861  0.997934720321015 -97.956534904846 
! Gamma         0.0544752576981931 38.3838346103012 0.0542772440176611 38.3835928989213 
! Port Impedance         50               0                50               0                
1.8292                         0.997930637946635 -97.8817049472324 5.89779164348473E-06 171.031218290872 5.89779164350379E-06 171.031218291127 0.997924267046142 -98.0851853916936 
! Gamma         0.0544812738353851 38.3922240155593 0.054283233832714 38.3919822767025 
! Port Impedance         50               0                50               0                
1.8296                         0.997920229509158 -98.0101531591406 6.04187500306136E-06 170.899228477653 6.0418750030674E-06 170.899228478214 0.997913707662644 -98.2146121181564 
! Gamma         0.0544872893159373 38.4006134201581 0.0542892229938629 38.4003716538273 
! Port Impedance         50               0                50               0                
1.83                           0.997909715926853 -98.1393732905956 6.19002726902004E-06 170.766437220088 6.19002726903399E-06 170.766437220181 0.99790304062235 -98.3448236251595 
! Gamma         0.0544933041400646 38.4090028240977 0.0542952115013221 38.4087610302961 
! Port Impedance         50               0                50               0                
1.8304                         0.997899095673905 -98.2693737944527 6.34237912030308E-06 170.632835691353 6.34237912031244E-06 170.632835690414 0.997892264347859 -98.4758285830441 
! Gamma         0.054499318307982 38.4173922273784 0.0543011993553055 38.417150406109  
! Port Impedance         50               0                50               0                
1.8308                         0.997888367195861 -98.4001632509475 6.4990659468804E-06 170.498414926045 6.49906594688236E-06 170.498414925529 0.997881377231856 -98.6076357940785 
! Gamma         0.0545053318199042 38.4257816300003 0.054307186556027 38.4255397812662 
! Port Impedance         50               0                50               0                