! Touchstone file exported from HFSS 2023.1.0
!        File:           E:/1.Project/CoxailF/seventhree.aedt
!        Generated:      7:46:03 %x4E0B%x5348  5%x6708 24, 2023
!        Design:         Resonator_out4
!        Project:        seventhree
!        Setup:          Setup1
!        Solution:       Sweep
!
! Variables:
!        Hin1 = 26mm
!        Hout = 29mm
!        L12 = 15mm
!        L13 = 14.5mm
!        L23 = 6.6mm
!        L34 = 12.3mm
!        L45 = 7.7mm
!        L46 = 2.5mm
!        L56 = 8mm
!        L67 = 12.5mm
!        L78 = 9mm
!        L79 = 9.6mm
!        L89 = 16mm
!        Rin = 5mm
!        Rin2 = 4mm
!        Rout = 15mm
!        Rport = 1.15mm
!        Rport2 = 3mm
!        Rportin = 0.5mm
!        d = 3mm
!        d01 = 2.86mm
!        d02 = 3.42mm
!        d03 = 3.62mm
!        d04 = 3.68mm
!        d05 = 3.68mm
!        d06 = 3.7mm
!        d07 = 3.64mm
!        d08 = 3.54mm
!        d09 = 2.89mm
!        d12 = 18mm
!        d12x = 15.5mm
!        d12y = 25mm
!        d23 = 18mm
!        d34 = 30mm
!        hport = 10.4mm
!        hport2 = 10.4mm
!        lport = 12mm
!        lport2 = 1mm
!        lport_2 = 12mm
!        m = 2mm
!        w12 = 12mm
!        w13 = 10mm
!        w34 = 12mm
!
# GHz S MA R 50.000000
! Terminal data exported
! Port[1] = 1
! Port[2] = 2
1.8                            0.998500380777521 -90.0679559125634 1.22638654496319E-06 179.014417918533 1.22638654496319E-06 179.014417918533 0.998484989873457 -90.3066291612509 
! Gamma         0.0540132488997378 37.7797502278213 0.0540119020857693 37.7797688448487 
! Port Impedance         50               0                50               0                
1.8004                         0.998495040195227 -90.1551927746405 1.24959130451633E-06 178.924841511538 1.24959130436808E-06 178.924841512881 0.998479523526565 -90.3948764605624 
! Gamma         0.054019307885252 37.7881396756056 0.05401796309882 37.788158295172  
! Port Impedance         50               0                50               0                
1.8008                         0.998489659831629 -90.2428001944907 1.27330248845483E-06 178.834878756885 1.27330248828614E-06 178.834878759626 0.998474015762139 -90.483504630295 
! Gamma         0.0540253661988173 37.7965291227152 0.0540240234397667 37.7965477448205 
! Port Impedance         50               0                50               0                
1.8012                         0.998484239254148 -90.330781240844 1.29753264206092E-06 178.744526427114 1.29753264192189E-06 178.744526430685 0.998468466120492 -90.5725168792534 
! Gamma         0.0540314238406574 37.8049185691503 0.0540300831088329 37.8049371937941 
! Port Impedance         50               0                50               0                
1.8016                         0.998478778024156 -90.419139017244 1.32229465871109E-06 178.653781249498 1.32229465860444E-06 178.653781255001 0.998462874135352 -90.6619164534118 
! Gamma         0.0540374808109959 37.8133080149113 0.0540361421062421 37.8133266420933 
! Port Impedance         50               0                50               0                
1.802                          0.998473275696871 -90.5078766625491 1.34760179078588E-06 178.562639918205 1.34760179073278E-06 178.562639922842 0.99845723933374 -90.751706636461 
! Gamma         0.054043537110056 37.8216974599982 0.0540422004322175 37.8217160897182 
! Port Impedance         50               0                50               0                
1.8024                         0.998467731821252 -90.5969973514414 1.37346766086991E-06 178.471099091136 1.3734676607542E-06 178.471099091278 0.998451561235858 -90.8418907503669 
! Gamma         0.0540495927380611 37.8300869044113 0.0540482580869823 37.8301055366691 
! Port Impedance         50               0                50               0                
1.8028                         0.998462145939892 -90.6865042949451 1.39990627256456E-06 178.379155377561 1.39990627240244E-06 178.379155378174 0.998445839354963 -90.9324721559379 
! Gamma         0.0540556476952342 37.8384763481509 0.0540543150707595 37.8384949829461 
! Port Impedance         50               0                50               0                
1.8032                         0.998456517588906 -90.7764007409539 1.42693202316473E-06 178.286805356691 1.42693202316924E-06 178.286805357223 0.998440073197247 -91.0234542534026 
! Gamma         0.0540617019817983 37.8468657912172 0.054060371383772 37.8468844285495 
! Port Impedance         50               0                50               0                
1.8036                         0.99845084629782 -90.8666899747676 1.45455971554547E-06 178.194045565566 1.45455971537229E-06 178.194045568455 0.998434262261709 -91.1148404829991 
! Gamma         0.0540677555979763 37.8552552336103 0.0540664270262427 37.8552738734795 
! Port Impedance         50               0                50               0                
1.804                          0.998445131589461 -90.9573753196383 1.48280457033163E-06 178.100872498576 1.48280457025404E-06 178.10087250255  0.998428406040027 -91.2066343255733 
! Gamma         0.054073808543991 37.8636446753306 0.0540724819983941 37.8636633177364 
! Port Impedance         50               0                50               0                
1.8044                         0.998439372979831 -91.0484601373265 1.51168224016125E-06 178.007282614847 1.51168224010096E-06 178.007282619276 0.998422504016429 -91.29883930319  
! Gamma         0.054079860820065 37.8720341163782 0.0540785363004488 37.8720527613203 
! Port Impedance         50               0                50               0                
1.8048                         0.998433569977997 -91.1399478286663 1.54120882224333E-06 177.913272323822 1.54120882215478E-06 177.913272327891 0.998416555667556 -91.3914589797535 
! Gamma         0.0540859124264208 37.8804235567534 0.0540845899326293 37.8804422042315 
! Port Impedance         50               0                50               0                
1.8052                         0.998427722085964 -91.2318418341416 1.57140087258751E-06 177.818838001079 1.57140087245983E-06 177.818838002355 0.998410560462329 -91.4844969616407 
! Gamma         0.0540919633632807 37.8888129964564 0.0540906428951578 37.8888316464703 
! Port Impedance         50               0                50               0                
1.8056                         0.998421828798553 -91.3241456344723 1.60227542080829E-06 177.723975966127 1.60227542068777E-06 177.723975969532 0.9984045178618  -91.5779568983456 
! Gamma         0.0540980136308671 37.8972024354875 0.0540966951882565 37.8972210880368 
! Port Impedance         50               0                50               0                
1.806                          0.998415889603274 -91.4168627512109 1.63384998482491E-06 177.628682510805 1.63384998477622E-06 177.628682513784 0.998398427319024 -91.6718424831357 
! Gamma         0.0541040632294019 37.9055918738467 0.0541027468121474 37.9056105289312 
! Port Impedance         50               0                50               0                
1.8064                         0.998409903980197 -91.5099967473499 1.6661425867438E-06 177.532953871065 1.6661425867511E-06 177.532953875922 0.998392288278898 -91.7661574537202 
! Gamma         0.0541101121591074 37.9139813115344 0.0541087977670525 37.9139999691538 
! Port Impedance         50               0                50               0                
1.8068                         0.998403871401817 -91.6035512279401 1.69917176854422E-06 177.436786247314 1.6991717684684E-06 177.436786249922 0.998386100178021 -91.8609055929317 
! Gamma         0.0541161604202052 37.9223707485508 0.0541148480531937 37.9223894087049 
! Port Impedance         50               0                50               0                
1.8072                         0.998397791332924 -91.6975298407207 1.73295660893131E-06 177.34017578731  1.73295660883322E-06 177.340175786266 0.998379862444541 -91.9560907294193 
! Gamma         0.0541222080129173 37.9307601848962 0.0541208976707925 37.9307788475845 
! Port Impedance         50               0                50               0                
1.8076                         0.998391663230461 -91.7919362767599 1.76751674049204E-06 177.243118589922 1.76751674049068E-06 177.2431185897   0.998373574497994 -92.0517167383558 
! Gamma         0.0541282549374652 37.9391496205707 0.0541269466200706 37.9391682857931 
! Port Impedance         50               0                50               0                
1.808                          0.998385486543389 -91.8867742711078 1.80287236775822E-06 177.145610714431 1.80287236770843E-06 177.145610713705 0.998367235749152 -92.1477875421576 
! Gamma         0.0541343011940704 37.9475390555745 0.0541329949012493 37.9475577233307 
! Port Impedance         50               0                50               0                
1.8084                         0.998379260712537 -91.9820476034614 1.83904428537251E-06 177.047648168211 1.83904428536431E-06 177.047648169047 0.998360845599855 -92.2443071112185 
! Gamma         0.0541403467829543 37.9559284899079 0.0541390425145501 37.9559471601976 
! Port Impedance         50               0                50               0                
1.8088                         0.998372985170458 -92.0777600988414 1.87605389727041E-06 176.94922691283  1.87605389724656E-06 176.949226912791 0.998354403442846 -92.3412794646573 
! Gamma         0.0541463917043383 37.9643179235711 0.0541450894601941 37.964336596394  
! Port Impedance         50               0                50               0                
1.8092                         0.998366659341281 -92.1739156282816 1.91392323668167E-06 176.850342858357 1.91392323666079E-06 176.850342858527 0.998347908661606 -92.4387086710795 
! Gamma         0.0541524359584434 37.9727073565643 0.0541511357384023 37.9727260319202 
! Port Impedance         50               0                50               0                
1.8096                         0.998360282640554 -92.2705181095314 1.95267498642803E-06 176.750991866121 1.9526749863472E-06 176.750991864372 0.99834136063017 -92.5365988493538 
! Gamma         0.0541584795454907 37.9810967888878 0.0541571813493959 37.9811154667763 
! Port Impedance         50               0                50               0                
1.81                           0.998353854475093 -92.3675715077704 1.99233250030647E-06 176.651169744093 1.99233250023024E-06 176.651169742576 0.998334758712961 -92.6349541694031 
! Gamma         0.054164522465701 37.9894862205418 0.0541632262933955 37.9895049009626 
! Port Impedance         50               0                50               0                
1.8104                         0.998347374242819 -92.4650798363378 2.03291982488151E-06 176.550872252411 2.03291982483848E-06 176.550872253118 0.998328102264602 -92.7337788530113 
! Gamma         0.0541705647192952 37.9978756515265 0.0541692705706219 37.9978943344794 
! Port Impedance         50               0                50               0                
1.8108                         0.998340841332593 -92.5630471574738 2.07446172282983E-06 176.450095095017 2.07446172276761E-06 176.450095095677 0.998321390629731 -92.833077174645 
! Gamma         0.0541766063064939 38.0062650818421 0.0541753141812956 38.0062837673268 
! Port Impedance         50               0                50               0                
1.8112                         0.998334255124057 -92.6614775830761 2.11698369583251E-06 176.348833927599 2.11698369582299E-06 176.348833927205 0.998314623142814 -92.9328534622914 
! Gamma         0.0541826472275176 38.0146545114888 0.0541813571256373 38.014673199505  
! Port Impedance         50               0                50               0                
1.8116                         0.998327614987452 -92.7603752754702 2.16051200960858E-06 176.247084347258 2.16051200962404E-06 176.247084348767 0.998307799127949 -93.0331120983127 
! Gamma         0.0541886874825867 38.0230439404669 0.0541873994038672 38.0230626310143 
! Port Impedance         50               0                50               0                
1.812                          0.998320920283458 -92.8597444481938 2.20507371919048E-06 176.144841896578 2.2050737191902E-06 176.144841898034 0.998300917898665 -93.1338575203165 
! Gamma         0.0541947270719216 38.0314333687766 0.0541934410162055 38.0314520618549 
! Port Impedance         50               0                50               0                
1.8124                         0.998314170363001 -92.9595893667971 2.25069669499422E-06 176.042102066561 2.25069669499179E-06 176.042102067451 0.998293978757726 -93.2350942220442 
! Gamma         0.0542007659957423 38.0398227964181 0.0541994819628724 38.039841492027  
! Port Impedance         50               0                50               0                
1.8128                         0.998307364567085 -93.0599143496569 2.29740965044381E-06 175.938860288646 2.29740965040069E-06 175.938860286459 0.998286980996917 -93.3368267542757 
! Gamma         0.054206804254269 38.0482122233916 0.0542055222440878 38.0482309215309 
! Port Impedance         50               0                50               0                
1.8132                         0.998300502226598 -93.1607237688077 2.34524216988464E-06 175.835111931264 2.3452421698229E-06 175.835111933574 0.998279923896836 -93.4390597257531 
! Gamma         0.0542128418477216 38.0566016496974 0.0542115618600716 38.0566203503667 
! Port Impedance         50               0                50               0                
1.8136                         0.998293582662126 -93.2620220507878 2.39422473839553E-06 175.730852315248 2.39422473835866E-06 175.730852319089 0.998272806726673 -93.5417978041216 
! Gamma         0.0542188787763198 38.0649910753357 0.0542176008110436 38.0650097785348 
! Port Impedance         50               0                50               0                
1.814                          0.998286605183756 -93.3638136775013 2.44438877156138E-06 175.626076696867 2.44438877151441E-06 175.626076697617 0.998265628743993 -93.6450457168896 
! Gamma         0.0542249150402834 38.0733805003066 0.0542236390972234 38.0733992060352 
! Port Impedance         50               0                50               0                
1.8144                         0.998279569090878 -93.4661031870979 2.49576664756393E-06 175.520780268832 2.49576664751909E-06 175.520780269408 0.998258389194502 -93.748808252408 
! Gamma         0.0542309506398319 38.0817699246105 0.0542296767188305 38.0817886328682 
! Port Impedance         50               0                50               0                
1.8148                         0.998272473671985 -93.5688951748686 2.54839173945908E-06 175.414958168527 2.54839173950577E-06 175.414958166999 0.998251087311821 -93.8530902608689 
! Gamma         0.0542369855751847 38.0901593482475 0.0542357136760842 38.0901780590341 
! Port Impedance         50               0                50               0                
1.8152                         0.998265318204465 -93.6721942941592 2.60229844981422E-06 175.308605460561 2.60229844966423E-06 175.308605461239 0.998243722317242 -93.9578966553245 
! Gamma         0.0542430198465611 38.0985487712178 0.0542417499692039 38.0985674845331 
! Port Impedance         50               0                50               0                
1.8156                         0.998258101954383 -93.7760052573018 2.65752224464611E-06 175.201717162944 2.65752224457506E-06 175.20171716266  0.998236293419489 -94.0632324127258 
! Gamma         0.0542490534541804 38.1069381935218 0.0542477855984087 38.1069569093654 
! Port Impedance         50               0                50               0                
1.816                          0.998250824176275 -93.8803328365641 2.71409969146098E-06 175.094288212826 2.7140996914256E-06 175.094288213067 0.998228799814467 -94.1691025749837 
! Gamma         0.0542550863982616 38.1153276151595 0.0542538205639177 38.1153463335311 
! Port Impedance         50               0                50               0                
1.8164                         0.998243484112913 -93.9851818651169 2.77206849594192E-06 174.986313493614 2.77206849598071E-06 174.986313492183 0.998221240685007 -94.27551225005  
! Gamma         0.0542611186790237 38.1237170361312 0.0542598548659496 38.1237357570306 
! Port Impedance         50               0                50               0                
1.8168                         0.99823608099509 -94.0905572380222 2.8314675421112E-06 174.877787813311 2.83146754214467E-06 174.877787812339 0.998213615200604 -94.3824666130216 
! Gamma         0.0542671502966854 38.1321064564372 0.0542658885047234 38.1321251798641 
! Port Impedance         50               0                50               0                
1.8172                         0.998228614041381 -94.1964639132388 2.89233693266904E-06 174.768705917943 2.89233693259118E-06 174.768705918961 0.998205922517149 -94.489970907267 
! Gamma         0.0542731812514656 38.1404958760777 0.0542719214804577 38.1405146020317 
! Port Impedance         50               0                50               0                
1.8176                         0.998221082457909 -94.3029069126493 2.95471803155975E-06 174.65906248235  2.95471803158067E-06 174.659062485234 0.998198161776656 -94.5980304455754 
! Gamma         0.0542792115435828 38.1488852950528 0.054277953793371 38.1489040235337 
! Port Impedance         50               0                50               0                
1.818                          0.998213485438097 -94.4098913231064 3.0186535080481E-06 174.548852117904 3.01865350798832E-06 174.548852118075 0.998190332106982 -94.7066506113296 
! Gamma         0.0542852411732554 38.1572747133629 0.0542839854436818 38.1572934443703 
! Port Impedance         50               0                50               0                
1.8184                         0.998205822162426 -94.5174222975014 3.08418738231335E-06 174.438069351982 3.08418738237758E-06 174.438069353471 0.99818243262154 -94.8158368597041 
! Gamma         0.0542912701407018 38.165664131008  0.0542900164316083 38.1656828645417 
! Port Impedance         50               0                50               0                
1.8188                         0.998198091798178 -94.6255050558524 3.15136507328837E-06 174.326708650014 3.15136507324724E-06 174.326708649401 0.998174462419004 -94.9255947188866 
! Gamma         0.0542972984461403 38.1740535479885 0.0542960467573688 38.1740722840482 
! Port Impedance         50               0                50               0                
1.8192                         0.998190293499173 -94.734144886416 3.22023344722853E-06 174.214764401056 3.22023344721788E-06 174.214764400639 0.998166420583005 -95.035929791326 
! Gamma         0.0543033260897889 38.1824429643046 0.0543020764211813 38.18246170289   
! Port Impedance         50               0                50               0                
1.8196                         0.998182426405508 -94.8433471468203 3.29084086955316E-06 174.102230917028 3.2908408695992E-06 174.102230917761 0.998158306181829 -95.1468477550059 
! Gamma         0.0543093530718656 38.1908323799564 0.0543081054232638 38.1908511210672 
! Port Impedance         50               0                50               0                
1.82                           0.99817448964328 -94.9531172652209 3.3632372581939E-06 173.989102438085 3.36323725817167E-06 173.989102438045 0.998150118268094 -95.2583543647449 
! Gamma         0.0543153793925883 38.1992217949443 0.0543141337638342 38.1992405385802 
! Port Impedance         50               0                50               0                
1.8204                         0.998166482324309 -95.0634607414812 3.43747413803234E-06 173.87537312484  3.43747413811174E-06 173.875373124481 0.998141855878431 -95.370455453525 
! Gamma         0.0543214050521748 38.2076112092684 0.05432016144311 38.2076299554291 
! Port Impedance         50               0                50               0                
1.8208                         0.998158403545852 -95.1743831483755 3.51360469938429E-06 173.761037058397 3.51360469937285E-06 173.761037060099 0.998133518033149 -95.4831569338466 
! Gamma         0.0543274300508426 38.2160006229289 0.054326188461309 38.2160193716141 
! Port Impedance         50               0                50               0                
1.8212                         0.998150252390312 -95.2858901328184 3.59168385685695E-06 173.646088244008 3.5916838569058E-06 173.646088243249 0.998125103735896 -95.5964647991141 
! Gamma         0.0543334543888093 38.224390035926  0.0543322148186486 38.2244087871355 
! Port Impedance         50               0                50               0                
1.8216                         0.998142027924935 -95.3979874171172 3.67176831217152E-06 173.530520598381 3.67176831217954E-06 173.530520599107 0.998116611973312 -95.7103851250491 
! Gamma         0.0543394780662922 38.23277944826   0.0543382405153461 38.2327982019935 
! Port Impedance         50               0                50               0                
1.822                          0.998133729201509 -95.5106808002519 3.75391661783398E-06 173.414327962855 3.75391661780516E-06 173.414327963387 0.998108041714667 -95.8249240711355 
! Gamma         0.0543455010835087 38.2411688599312 0.0543442655516189 38.2411876161882 
! Port Impedance         50               0                50               0                
1.8224                         0.998125355256044 -95.6239761591814 3.83818924526677E-06 173.297504089834 3.83818924527965E-06 173.297504089171 0.998099391911502 -95.9400878820947 
! Gamma         0.0543515234406758 38.2495582709396 0.0543502899276839 38.24957702972   
! Port Impedance         50               0                50               0                
1.8228                         0.998116905108458 -95.7378794501756 3.92464865374554E-06 173.180042646642 3.92464865377675E-06 173.180042646584 0.998090661497246 -96.0558828893929 
! Gamma         0.0543575451380107 38.2579476812856 0.0543563136437582 38.2579664425891 
! Port Impedance         50               0                50               0                
1.8232                         0.998108377762238 -95.852396710177 4.01335936325937E-06 173.061937216198 4.01335936330014E-06 173.061937215938 0.998081849386837 -96.1723155127806 
! Gamma         0.0543635661757301 38.2663370909693 0.0543623367000588 38.2663558547955 
! Port Impedance         50               0                50               0                
1.8236                         0.998099772204114 -95.9675340581894 4.10438803020816E-06 172.943181289334 4.10438803022149E-06 172.943181289141 0.998072954476324 -96.2893922618665 
! Gamma         0.054369586554051 38.274726499991  0.0543683590968022 38.2747452663397 
! Port Impedance         50               0                50               0                
1.824                          0.998091087403704 -96.0832976966961 4.19780352540811E-06 172.823768270786 4.19780352549421E-06 172.823768269874 0.998063975642464 -96.4071197377245 
! Gamma         0.0543756062731898 38.2831159083509 0.0543743808342053 38.2831346772217 
! Port Impedance         50               0                50               0                
1.8244                         0.998082322313167 -96.1996939131086 4.29367701650521E-06 172.703691466729 4.29367701651087E-06 172.703691467155 0.998054911742305 -96.5255046345371 
! Gamma         0.0543816253333633 38.2915053160492 0.0543804019124845 38.2915240874419 
! Port Impedance         50               0                50               0                
1.8248                         0.998073475866837 -96.3167290812451 4.39208205208811E-06 172.582944097507 4.39208205221206E-06 172.582944098024 0.998045761612764 -96.6445537412741 
! Gamma         0.0543876437347879 38.2998947230861 0.0543864223318563 38.2999134970004 
! Port Impedance         50               0                50               0                
1.8252                         0.998064546980851 -96.4344096628407 4.49309465114589E-06 172.461519283544 4.49309465122274E-06 172.461519284275 0.998036524070187 -96.7642739434085 
! Gamma         0.0543936614776798 38.3082841294619 0.0543924420925369 38.3083029058974 
! Port Impedance         50               0                50               0                
1.8256                         0.998055534552771 -96.5527422090899 4.59679339446971E-06 172.33941004889  4.59679339452168E-06 172.33941004937  0.998027197909903 -96.8846722246711 
! Gamma         0.0543996785622552 38.3166735351767 0.0543984611947425 38.3166923141332 
! Port Impedance         50               0                50               0                
1.826                          0.998046437461193 -96.6717333622221 4.70325952080522E-06 172.216609320923 4.70325952081457E-06 172.216609321324 0.998017781905763 -97.0057556688432 
! Gamma         0.0544056949887302 38.3250629402308 0.0544044796386891 38.325081721708  
! Port Impedance         50               0                50               0                
1.8264                         0.998037254565346 -96.7913898571103 4.81257702657523E-06 172.093109925249 4.81257702659688E-06 172.093109925096 0.998008274809669 -97.1275314615899 
! Gamma         0.0544117107573209 38.3334523446244 0.0544104974245927 38.333471128622  
! Port Impedance         50               0                50               0                
1.8268                         0.998027984704683 -96.9117185229157 4.92483276981829E-06 171.968904585938 4.92483276983826E-06 171.96890458495  0.997998675351094 -97.2500068923345 
! Gamma         0.0544177258682429 38.3418417483577 0.0544165145526691 38.3418605348754 
! Port Impedance         50               0                50               0                
1.8272                         0.998018626698462 -97.0327262847668 5.04011657886786E-06 171.843985920308 5.04011657881965E-06 171.843985920958 0.997988982236577 -97.3731893561756 
! Gamma         0.0544237403217121 38.3502311514309 0.0544225310231341 38.3502499404684 
! Port Impedance         50               0                50               0                
1.8276                         0.998009179345311 -97.1544201654754 5.15852136444205E-06 171.718346444912 5.1585213643732E-06 171.7183464448   0.997979194149222 -97.4970863558463 
! Gamma         0.0544297541179439 38.3586205538443 0.0544285468362031 38.3586393454012 
! Port Impedance         50               0                50               0                
1.828                          0.997999641422793 -97.2768072872897 5.28014323754231E-06 171.591978564309 5.28014323762056E-06 171.591978562859 0.99796930974817 -97.6217055037194 
! Gamma         0.054435767257154 38.3670099555981 0.0544345619920917 38.3670287496742 
! Port Impedance         50               0                50               0                
1.8284                         0.997990011686948 -97.3998948736864 5.40508163215056E-06 171.464874573397 5.40508163219808E-06 171.464874573473 0.997959327668064 -97.7470545238573 
! Gamma         0.0544417797395577 38.3753993566924 0.0544405764910153 38.3754181532874 
! Port Impedance         50               0                50               0                
1.8288                         0.997980288871831 -97.523690251202 5.53343943209427E-06 171.337026657951 5.5334394320496E-06 171.337026658638 0.997949246518494 -97.8731412541095 
! Gamma         0.0544477915653702 38.3837887571275 0.0544465903331889 38.3838075562411 
! Port Impedance         50               0                50               0                
1.8292                         0.997970471689033 -97.6482008513037 5.66532310452696E-06 171.208426886767 5.6653231045504E-06 171.208426886969 0.997939064883437 -97.9999736482582 
! Gamma         0.0544538027348066 38.3921781569036 0.0544526035188279 38.3921969585355 
! Port Impedance         50               0                50               0                
1.8296                         0.997960558827196 -97.7734342123033 5.80084283848239E-06 171.079067214858 5.80084283837536E-06 171.079067215663 0.99792878132067 -98.1275597782134 
! Gamma         0.054459813248082 38.400567556021  0.0544586160481471 38.4005863601709 
! Port Impedance         50               0                50               0                
1.83                           0.997950548951508 -97.8993979813119 5.94011268909384E-06 170.948939477803 5.94011268905245E-06 170.948939477819 0.997918394361176 -98.255907836259 
! Gamma         0.0544658231054112 38.4089569544798 0.0544646279213614 38.4089757611474 
! Port Impedance         50               0                50               0                
1.8304                         0.997940440703193 -98.0260999162396 6.08325072870188E-06 170.818035391257 6.08325072871881E-06 170.818035390272 0.997907902508526 -98.3850261373511 
! Gamma         0.054471832307009 38.4173463522803 0.0544706391386857 38.4173651614653 
! Port Impedance         50               0                50               0                
1.8308                         0.997930232698979 -98.1535478878396 6.23037920397289E-06 170.686346545454 6.23037920406627E-06 170.686346544985 0.997897304238256 -98.5149231214708 
! Gamma         0.0544778408530902 38.4257357494227 0.0544766497003345 38.4257545611247 
! Port Impedance         50               0                50               0                