! Touchstone file exported from HFSS 2023.1.0
!        File:           E:/1.Project/CoxailF/seventhree.aedt
!        Generated:      8:53:49 %x4E0B%x5348  5%x6708 24, 2023
!        Design:         Resonator_out5
!        Project:        seventhree
!        Setup:          Setup1
!        Solution:       Sweep
!
! Variables:
!        Hin1 = 26mm
!        Hout = 29mm
!        L12 = 15mm
!        L13 = 14.5mm
!        L23 = 6.9mm
!        L34 = 12.5mm
!        L45 = 7.7mm
!        L46 = 2mm
!        L56 = 8mm
!        L67 = 12.5mm
!        L78 = 9.2mm
!        L79 = 9.6mm
!        L89 = 16mm
!        Rin = 5mm
!        Rin2 = 4mm
!        Rout = 15mm
!        Rport = 1.15mm
!        Rport2 = 3mm
!        Rportin = 0.5mm
!        d = 3mm
!        d01 = 2.87mm
!        d02 = 3.47mm
!        d03 = 3.64mm
!        d04 = 3.7mm
!        d05 = 3.7mm
!        d06 = 3.69mm
!        d07 = 3.65mm
!        d08 = 3.54mm
!        d09 = 2.89mm
!        d12 = 18mm
!        d12x = 15.5mm
!        d12y = 25mm
!        d23 = 18mm
!        d34 = 30mm
!        hport = 10.4mm
!        hport2 = 10.4mm
!        lport = 12mm
!        lport2 = 1mm
!        lport_2 = 12mm
!        m = 2mm
!        w12 = 12mm
!        w13 = 10mm
!        w34 = 12mm
!
# GHz S MA R 50.000000
! Terminal data exported
! Port[1] = 1
! Port[2] = 2
1.8                            0.998512280705795 -89.7984597016179 1.24063552334391E-06 179.388742017189 1.24063552334391E-06 179.388742017189 0.998511824886463 -89.8285288216131 
! Gamma         0.0540732695286148 37.7798358605328 0.0537783412881189 37.779469028817  
! Port Impedance         50               0                50               0                
1.8004                         0.998506986741466 -89.8852502482753 1.26416210913119E-06 179.299975557652 1.26416210916456E-06 179.299975559063 0.998506483966313 -89.9155916558362 
! Gamma         0.0540793379595017 37.7882253184942 0.0537843691500544 37.7878584442508 
! Port Impedance         50               0                50               0                
1.8008                         0.99850165325233 -89.9724092565524 1.28820333717913E-06 179.210828142819 1.2882033371609E-06 179.210828146914 0.9985011028696  -90.003026534724 
! Gamma         0.0540854057174614 37.7966147757797 0.05379039634336 37.7962478590136 
! Port Impedance         50               0                50               0                
1.8012                         0.998496279806733 -90.0599397844783 1.31277198718566E-06 179.121296592556 1.31277198721121E-06 179.121296594459 0.998495681152958 -90.0908365719782 
! Gamma         0.0540914728027182 37.8050042323896 0.0537964228682581 37.8046372731057 
! Port Impedance         50               0                50               0                
1.8016                         0.998490865966943 -90.1478449249246 1.33788119459638E-06 179.03137768733  1.33788119460955E-06 179.031377689195 0.998490218366699 -90.179024917169 
! Gamma         0.0540975392154965 37.8133936883241 0.0538024487249708 37.8130266865273 
! Port Impedance         50               0                50               0                
1.802                          0.998485411289049 -90.2361278061098 1.36354446128467E-06 178.941068177757 1.3635444613374E-06 178.941068177799 0.998484714054696 -90.2675947562622 
! Gamma         0.0541036049560202 37.8217831435835 0.0538084739137201 37.8214160992786 
! Port Impedance         50               0                50               0                
1.8024                         0.998479915322848 -90.3247915921125 1.38977566727513E-06 178.850364767335 1.38977566727215E-06 178.850364767076 0.998479167754274 -90.3565493121543 
! Gamma         0.0541096700245134 37.830172598168  0.0538144984347279 37.8298055113598 
! Port Impedance         50               0                50               0                
1.8028                         0.998474377611742 -90.4138394833937 1.41658908213256E-06 178.759264126091 1.4165890821472E-06 178.759264127871 0.998473578996095 -90.445891845218 
! Gamma         0.0541157344211999 37.8385620520778 0.053820522288216 37.8381949227712 
! Port Impedance         50               0                50               0                
1.8032                         0.998468797692623 -90.5032747173282 1.4439993772906E-06 178.667762886827 1.44399937730379E-06 178.667762888329 0.998467947304036 -90.5356256538575 
! Gamma         0.0541217981463035 37.8469515053131 0.053826545474406 37.846584333513  
! Port Impedance         50               0                50               0                
1.8036                         0.99846317509576 -90.5931005687454 1.47202163853277E-06 178.57585764305  1.47202163857823E-06 178.575857643094 0.998462272195073 -90.6257540750738 
! Gamma         0.0541278612000478 37.8553409578741 0.0538325679935196 37.8549737435853 
! Port Impedance         50               0                50               0                
1.804                          0.998457509344683 -90.6833203504804 1.50067137900717E-06 178.483544945951 1.50067137900616E-06 178.483544947391 0.998456553179157 -90.7162804850395 
! Gamma         0.0541339235826562 37.8637304097611 0.053838589845778 37.8633631529885 
! Port Impedance         50               0                50               0                
1.8044                         0.998451799956067 -90.773937413934 1.52996455260183E-06 178.39082130742  1.52996455260183E-06 178.39082130742  0.998450789759084 -90.8072082996857 
! Gamma         0.0541399852943521 37.8721198609743 0.0538446110314027 37.8717525617228 
! Port Impedance         50               0                50               0                
1.8048                         0.998446046439605 -90.8649551496435 1.55991756782245E-06 178.297683199628 1.55991756781126E-06 178.297683201707 0.998444981430376 -90.898540975298 
! Gamma         0.0541460463353586 37.8805093115139 0.0538506315506148 37.8801419697882 
! Port Impedance         50               0                50               0                
1.8052                         0.998440248297893 -90.9563769878637 1.59054730223837E-06 178.204127052017 1.59054730230574E-06 178.204127051179 0.998439127681141 -90.9902820091245 
! Gamma         0.054152106705899 37.8888987613802 0.0538566514036353 37.8885313771852 
! Port Impedance         50               0                50               0                
1.8056                         0.998434405026295 -91.0482063991576 1.62187111742548E-06 178.110149249488 1.62187111741817E-06 178.110149248805 0.998433227991943 -91.0824349399939 
! Gamma         0.054158166406196 37.8972882105733 0.0538626705906853 37.8969207839139 
! Port Impedance         50               0                50               0                
1.806                          0.998428516112824 -91.1404468949992 1.65390687399739E-06 178.015746136626 1.65390687402156E-06 178.015746137982 0.998427281835669 -91.1750033489464 
! Gamma         0.0541642254364725 37.9056776590935 0.0538686891119854 37.9053101899746 
! Port Impedance         50               0                50               0                
1.8064                         0.998422581038   -91.233102028386 1.6866729479606E-06 177.920914015991 1.68667294795967E-06 177.92091401686  0.998421288677379 -91.2679908598753 
! Gamma         0.0541702837969514 37.9140671069411 0.0538747069677565 37.9136995953673 
! Port Impedance         50               0                50               0                
1.8068                         0.998416599274725 -91.3261753944634 1.72018824692132E-06 177.8256491427   1.72018824694524E-06 177.825649144227 0.998415247974178 -91.3614011401803 
! Gamma         0.054176341487855 37.9224565541161 0.053880724158219 37.9220890000925 
! Port Impedance         50               0                50               0                
1.8072                         0.998410570288141 -91.4196706311603 1.75447222732006E-06 177.729947729176 1.75447222731209E-06 177.729947730427 0.998409159175058 -91.4552379014341 
! Gamma         0.0541823985094059 37.930846000619  0.0538867406835934 37.9304784041503 
! Port Impedance         50               0                50               0                
1.8076                         0.998404493535491 -91.5135914198363 1.78954491189566E-06 177.633805941849 1.78954491191392E-06 177.63380594146  0.998403021720756 -91.5495049000606 
! Gamma         0.0541884548618263 37.9392354464498 0.0538927565441001 37.9388678075409 
! Port Impedance         50               0                50               0                
1.808                          0.998398368465976 -91.6079414859412 1.82542690819915E-06 177.537219898785 1.82542690823989E-06 177.537219897417 0.998396835043595 -91.6442059380254 
! Gamma         0.0541945105453385 37.9476248916088 0.0538987717399593 37.9472572102645 
! Port Impedance         50               0                50               0                
1.8084                         0.998392194520611 -91.7027245996862 1.86213942745441E-06 177.440185670503 1.86213942748166E-06 177.440185670741 0.998390598567341 -91.7393448635409 
! Gamma         0.0542005655601645 37.9560143360963 0.0539047862713911 37.9556466123214 
! Port Impedance         50               0                50               0                
1.8088                         0.998385971132072 -91.7979445767278 1.89970430395567E-06 177.342699287906 1.89970430401608E-06 177.342699287794 0.99838431170703 -91.8349255717831 
! Gamma         0.0542066199065262 37.9644037799124 0.0539108001386154 37.9640360137117 
! Port Impedance         50               0                50               0                
1.8092                         0.998379697724547 -91.8936052788648 1.93814401582831E-06 177.244756723593 1.93814401585832E-06 177.244756724215 0.998377973868815 -91.9309520056228 
! Gamma         0.0542126735846455 37.9727932230574 0.0539168133418521 37.9724254144358 
! Port Impedance         50               0                50               0                
1.8096                         0.998373373713578 -91.9897106147473 1.97748170564479E-06 177.146353906183 1.97748170566701E-06 177.146353906594 0.998371584449797 -92.0274281563704 
! Gamma         0.0542187265947441 37.9811826655315 0.053922825881321 37.9808148144938 
! Port Impedance         50               0                50               0                
1.81                           0.998366998505903 -92.0862645406002 2.01774120249113E-06 177.04748671364  2.0177412024452E-06 177.047486714506 0.998365142837855 -92.1243580645354 
! Gamma         0.0542247789370433 37.9895721073349 0.0539288377572416 37.989204213886  
! Port Impedance         50               0                50               0                
1.8104                         0.998360571499293 -92.1832710609596 2.05894704433354E-06 176.948150971133 2.05894704434504E-06 176.948150971151 0.998358648411474 -92.2217458205996 
! Gamma         0.0542308306117648 37.9979615484678 0.0539348489698335 37.9975936126125 
! Port Impedance         50               0                50               0                
1.8108                         0.998354092082388 -92.2807342294233 2.10112450176901E-06 176.84834245639  2.10112450176847E-06 176.848342457471 0.998352100539566 -92.3195955658062 
! Gamma         0.0542368816191298 38.0063509889306 0.053940859519316 38.0059830106736 
! Port Impedance         50               0                50               0                
1.8112                         0.998347559634524 -92.3786581494152 2.14429960189306E-06 176.748056890103 2.14429960190387E-06 176.748056890474 0.998345498581291 -92.4179114929632 
! Gamma         0.0542429319593595 38.0147404287233 0.0539468694059084 38.0143724080695 
! Port Impedance         50               0                50               0                
1.8116                         0.998340973525558 -92.4770469749649 2.18849915370277E-06 176.647289941257 2.18849915367821E-06 176.647289943308 0.998338841885868 -92.5166978472629 
! Gamma         0.0542489816326749 38.0231298678462 0.0539528786298298 38.0227618048005 
! Port Impedance         50               0                50               0                
1.812                          0.998334333115698 -92.5759049115016 2.23375077391994E-06 176.546037228572 2.23375077390131E-06 176.546037229398 0.99833212979239 -92.615958927117 
! Gamma         0.0542550306392969 38.0315193062996 0.0539588871912992 38.0311512008667 
! Port Impedance         50               0                50               0                
1.8124                         0.998327637755313 -92.6752362166631 2.28008291426651E-06 176.444294312283 2.28008291427318E-06 176.444294312966 0.998325361629628 -92.7156990850085 
! Gamma         0.0542610789794463 38.0399087440836 0.0539648950905356 38.0395405962684 
! Port Impedance         50               0                50               0                
1.8128                         0.998320886784754 -92.7750452011212 2.32752488937807E-06 176.342056694329 2.32752488939019E-06 176.342056694183 0.998318536715829 -92.8159227283596 
! Gamma         0.0542671266533439 38.0482981811984 0.0539709023277577 38.0479299910057 
! Port Impedance         50               0                50               0                
1.8132                         0.998314079534159 -92.8753362294216 2.37610690561448E-06 176.239319827021 2.37610690562533E-06 176.239319827363 0.998311654358522 -92.9166343204169 
! Gamma         0.05427317366121 38.0566876176444 0.0539769089031842 38.056319385079  
! Port Impedance         50               0                50               0                
1.8136                         0.998307215323267 -92.9761137208417 2.42586009154421E-06 176.13607909772  2.42586009157417E-06 176.136079099044 0.998304713854302 -93.0178383811545 
! Gamma         0.0542792200032652 38.0650770534217 0.0539829148170336 38.0647087784884 
! Port Impedance         50               0                50               0                
1.814                          0.998300293461209 -93.0773821502634 2.47681652888375E-06 176.03232984145  2.47681652887334E-06 176.032329843783 0.99829771448862 -93.1195394881943 
! Gamma         0.0542852656797298 38.0734664885306 0.0539889200695243 38.0730981712341 
! Port Impedance         50               0                50               0                
1.8144                         0.998293313246316 -93.1791460490642 2.52900928503274E-06 175.928067332313 2.52900928506558E-06 175.928067331597 0.99829065553557 -93.2217422777446 
! Gamma         0.0542913106908238 38.0818559229712 0.0539949246608747 38.0814875633164 
! Port Impedance         50               0                50               0                
1.8148                         0.998286273965903 -93.2814100060249 2.58247244664235E-06 175.823286779405 2.58247244664086E-06 175.823286779856 0.998283536257662 -93.324451445558 
! Gamma         0.0542973550367674 38.0902453567438 0.054000928591303 38.0898769547355 
! Port Impedance         50               0                50               0                
1.8152                         0.998279174896063 -93.3841786682557 2.63724115445501E-06 175.717983335643 2.63724115445517E-06 175.717983336089 0.998276355905597 -93.4276717479082 
! Gamma         0.0543033987177805 38.0986347898485 0.0540069318610271 38.0982663454916 
! Port Impedance         50               0                50               0                
1.8156                         0.998272015301447 -93.48745674214  2.69335163954069E-06 175.612152090543 2.69335163953715E-06 175.612152091996 0.998269113718032 -93.5314080025859 
! Gamma         0.0543094417340827 38.1070242222858 0.0540129344702651 38.106655735585  
! Port Impedance         50               0                50               0                
1.816                          0.998264794435045 -93.5912489942969 2.75084126073265E-06 175.505788069865 2.7508412607323E-06 175.505788070868 0.998261808921344 -93.6356650899153 
! Gamma         0.0543154840858939 38.1154136540556 0.0540189364192348 38.1150451250157 
! Port Impedance         50               0                50               0                
1.8164                         0.998257511537955 -93.6955602525631 2.80974854374638E-06 175.398886234505 2.80974854380523E-06 175.398886234461 0.998254440729387 -93.7404479537911 
! Gamma         0.0543215257734336 38.1238030851583 0.0540249377081538 38.1234345137842 
! Port Impedance         50               0                50               0                
1.8168                         0.998250165839153 -93.8003954069945 2.8701132214983E-06 175.291441478624 2.8701132215069E-06 175.291441478638 0.998247008343239 -93.8457616027364 
! Gamma         0.054327566796921 38.1321925155941 0.0540309383372398 38.1318239018905 
! Port Impedance         50               0                50               0                
1.8172                         0.998242756555255 -93.9057594108868 2.93197627609566E-06 175.183448632366 2.93197627613019E-06 175.183448631609 0.998239510950949 -93.9516111109824 
! Gamma         0.0543336071565756 38.1405819453633 0.0540369383067104 38.1402132893349 
! Port Impedance         50               0                50               0                
1.8176                         0.998235282890277 -94.011657281818 2.99537998249656E-06 175.074902456733 2.99537998248273E-06 175.07490245671  0.998231947727276 -94.0580016195695 
! Gamma         0.0543396468526166 38.1489713744659 0.0540429376167827 38.1486026761177 
! Port Impedance         50               0                50               0                
1.818                          0.998227744035378 -94.11809410271  3.06036795375041E-06 174.965797644849 3.06036795373195E-06 174.965797644687 0.99822431783342 -94.164938337472 
! Gamma         0.0543456858852628 38.1573608029023 0.0540489362676741 38.1569920622389 
! Port Impedance         50               0                50               0                
1.8184                         0.998220139168615 -94.225075022914 3.12698518799818E-06 174.856128818484 3.12698518797557E-06 174.856128818447 0.998216620416745 -94.2724265427452 
! Gamma         0.0543517242547333 38.1657502306726 0.0540549342596016 38.165381447699  
! Port Impedance         50               0                50               0                
1.8188                         0.998212467454674 -94.3326052593156 3.19527811724032E-06 174.745890529443 3.19527811723691E-06 174.745890530447 0.998208854610505 -94.3804715836966 
! Gamma         0.0543577619612469 38.1741396577772 0.0540609315927824 38.173770832498  
! Port Impedance         50               0                50               0                
1.8192                         0.998204728044612 -94.4406900974638 3.26529465826473E-06 174.635077256377 3.26529465827719E-06 174.635077257017 0.998201019533549 -94.489078880081 
! Gamma         0.0543637990050222 38.1825290842161 0.0540669282674332 38.1821602166362 
! Port Impedance         50               0                50               0                
1.8196                         0.998196920075573 -94.5493348927226 3.33708426503976E-06 174.523683406429 3.33708426503369E-06 174.523683407514 0.998193114290031 -94.5982539243215 
! Gamma         0.0543698353862777 38.1909185099897 0.0540729242837708 38.1905496001138 
! Port Impedance         50               0                50               0                
1.82                           0.998189042670517 -94.6585450714459 3.41069798377079E-06 174.411703306817 3.41069798381309E-06 174.411703307483 0.998185137969105 -94.7080022827542 
! Gamma         0.0543758711052319 38.1993079350981 0.0540789196420119 38.198938982931  
! Port Impedance         50               0                50               0                
1.8204                         0.99818109493793 -94.7683261321772 3.48618850957662E-06 174.299131215664 3.48618850958756E-06 174.299131216502 0.998177089644621 -94.8183295969015 
! Gamma         0.0543819061621031 38.2076973595416 0.054084914342373 38.2073283650881 
! Port Impedance         50               0                50               0                
1.8208                         0.998173075971531 -94.8786836468738 3.56361024565725E-06 174.185961307951 3.56361024568662E-06 174.185961308114 0.9981689683748  -94.9292415847698 
! Gamma         0.0543879405571094 38.2160867833204 0.0540909083850706 38.2157177465853 
! Port Impedance         50               0                50               0                
1.8212                         0.998164984849971 -94.9896232621557 3.643019364906E-06 174.072187682702 3.64301936497391E-06 174.072187682475 0.998160773201915 -95.0407440421767 
! Gamma         0.0543939742904689 38.2244762064347 0.0540969017703209 38.2241071274227 
! Port Impedance         50               0                50               0                
1.8216                         0.998156820636527 -95.1011507005818 3.72447387377592E-06 173.957804356133 3.72447387375639E-06 173.957804356877 0.998152503151961 -95.1528428441047 
! Gamma         0.0544000073623995 38.2328656288847 0.0541028944983401 38.2324965076007 
! Port Impedance         50               0                50               0                
1.822                          0.998148582378785 -95.2132717619512 3.80803367837365E-06 173.842805268348 3.8080336784073E-06 173.842805268947 0.998144157234302 -95.2655439460849 
! Gamma         0.0544060397731191 38.2412550506706 0.0541088865693443 38.2408858871193 
! Port Impedance         50               0                50               0                
1.8224                         0.998140269108321 -95.3259923246332 3.89376065429147E-06 173.72718427038  3.89376065424718E-06 173.727184271696 0.998135734441337 -95.3788533856105 
! Gamma         0.0544120715228452 38.2496444717927 0.0541148779835494 38.2492752659789 
! Port Impedance         50               0                50               0                
1.8228                         0.998131879840363 -95.4393183469242 3.98171871761349E-06 173.610935133431 3.98171871756987E-06 173.610935134826 0.998127233748129 -95.4927772835792 
! Gamma         0.0544181026117955 38.2580338922512 0.0541208687411712 38.2576646441796 
! Port Impedance         50               0                50               0                
1.8232                         0.998123413573459 -95.553255868434 4.07197390021646E-06 173.49405154173  4.07197390026661E-06 173.4940515414   0.998118654112044 -95.6073218457685 
! Gamma         0.0544241330401874 38.2664233120462 0.0541268588424255 38.2660540217217 
! Port Impedance         50               0                50               0                
1.8236                         0.998114869289127 -95.667811011501 4.16459442764423E-06 173.376527088015 4.16459442769774E-06 173.376527088403 0.998109994472375 -95.722493364342 
! Gamma         0.0544301628082381 38.2748127311781 0.0541328482875279 38.2744433986053 
! Port Impedance         50               0                50               0                
1.824                          0.9981062459515  -95.7829899826376 4.2596507993391E-06 173.258355283761 4.25965079936429E-06 173.258355283406 0.998101253749951 -95.8382982193883 
! Gamma         0.054436191916165 38.283202149647  0.0541388370766938 38.2828327748308 
! Port Impedance         50               0                50               0                
1.8244                         0.998097542506959 -95.8987990740066 4.3572158735667E-06 173.139529541997 4.35721587357687E-06 173.139529542499 0.998092430846744 -95.9547428804946 
! Gamma         0.0544422203641849 38.2915915674532 0.0541448252101386 38.2912221503983 
! Port Impedance         50               0                50               0                
1.8248                         0.998088757883762 -96.0152446649292 4.45736495447976E-06 173.020043190623 4.45736495447705E-06 173.020043190714 0.998083524645463 -96.0718339083535 
! Gamma         0.054448248152515 38.2999809845969 0.0541508126880775 38.299611525308  
! Port Impedance         50               0                50               0                
1.8252                         0.99807989099166 -96.1323332234257 4.56017588368676E-06 172.899889458534 4.56017588370508E-06 172.899889459683 0.998074534009136 -96.1895779564061 
! Gamma         0.054454275281372 38.3083704010782 0.0541567995107257 38.3080008995602 
! Port Impedance         50               0                50               0                
1.8256                         0.998070940721503 -96.2500713077889 4.66572913503814E-06 172.77906148326  4.66572913503259E-06 172.779061483617 0.998065457780685 -96.3079817725212 
! Gamma         0.0544603017509725 38.3167598168974 0.0541627856782982 38.316390273155  
! Port Impedance         50               0                50               0                
1.826                          0.998061905944838 -96.3684655681924 4.77410791351816E-06 172.657552302229 4.77410791355592E-06 172.657552302197 0.998056294782482 -96.4270522007114 
! Gamma         0.0544663275615333 38.3251492320548 0.0541687711910098 38.3247796460928 
! Port Impedance         50               0                50               0                
1.8264                         0.998052785513499 -96.4875227483331 4.88539825821146E-06 172.535354854651 4.88539825821128E-06 172.535354855003 0.998047043815907 -96.5467961828881 
! Gamma         0.0544723527132706 38.3335386465505 0.0541747560490754 38.3331690183736 
! Port Impedance         50               0                50               0                
1.8268                         0.998043578259176 -96.6072496871105 4.99968914936086E-06 172.412461979977 4.99968914939098E-06 172.412461980628 0.998037703660878 -96.6672207606554 
! Gamma         0.054478377206401 38.3419280603847 0.0541807402527097 38.3415583899977 
! Port Impedance         50               0                50               0                
1.8272                         0.998034282992987 -96.7276533203425 5.11707262032297E-06 172.288866414899 5.11707262032483E-06 172.288866414901 0.998028273075386 -96.7883330771448 
! Gamma         0.0544844010411405 38.3503174735578 0.054186723802127 38.3499477609654 
! Port Impedance         50               0                50               0                
1.8276                         0.998024898505033 -96.8487406825185 5.23764387361731E-06 172.164560790888 5.23764387362875E-06 172.164560791487 0.998018750794998 -96.9101403788901 
! Gamma         0.0544904242177052 38.3587068860698 0.054192706697542 38.3583371312768 
! Port Impedance         50               0                50               0                
1.828                          0.998015423563935 -96.9705189085925 5.36150140244323E-06 172.039537633903 5.36150140245901E-06 172.039537634008 0.998009135532368 -97.0326500177465 
! Gamma         0.0544964467363112 38.3670962979211 0.0541986889391689 38.3667265009321 
! Port Impedance         50               0                50               0                
1.8284                         0.998005856916372 -97.0929952358147 5.48874711685498E-06 171.913789360457 5.48874711686811E-06 171.913789360477 0.997999425976718 -97.1558694528521 
! Gamma         0.0545024685971742 38.3754857091117 0.0542046705272219 38.3751158699316 
! Port Impedance         50               0                50               0                
1.8288                         0.997996197286594 -97.2161770056052 5.61948647535429E-06 171.787308278796 5.61948647534995E-06 171.787308279103 0.997989620793316 -97.279806252635 
! Gamma         0.0545084898005101 38.383875119642  0.0542106514619151 38.3835052382756 
! Port Impedance         50               0                50               0                
1.8292                         0.997986443375933 -97.340071665469 5.75382862240639E-06 171.660086583102 5.75382862232302E-06 171.660086584054 0.99797971862293 -97.404468096866 
! Gamma         0.0545145103465343 38.3922645295122 0.0542166317434624 38.3918946059641 
! Port Impedance         50               0                50               0                
1.8296                         0.997976593862294 -97.4646867709541 5.89188653119412E-06 171.532116354048 5.89188653123421E-06 171.532116353956 0.997969718081279 -97.529862778759 
! Gamma         0.0545205302354624 38.4006539387224 0.0542226113720778 38.4002839729974 
! Port Impedance         50               0                50               0                
1.83                           0.997966647399634 -97.5900299876543 6.03377715335206E-06 171.403389554726 6.03377715336195E-06 171.403389554593 0.997959617758462 -97.6559982071199 
! Gamma         0.0545265494675097 38.409043347273  0.0542285903479749 38.4086733393758 
! Port Impedance         50               0                50               0                
1.8304                         0.997956602617432 -97.7161090932568 6.17962157405267E-06 171.273898030228 6.17962157404784E-06 171.273898029932 0.997949416218368 -97.7828824085452 
! Gamma         0.0545325680428915 38.417432755164  0.0542345686713674 38.4170627050995 
! Port Impedance         50               0                50               0                
1.8308                         0.997946458120137 -97.8429319796372 6.32954517469583E-06 171.143633504061 6.32954517471515E-06 171.143633503734 0.997939111998081 -97.9105235296725 
! Gamma         0.0545385859618229 38.4258221623958 0.0542405463424687 38.4254520701686 
! Port Impedance         50               0                50               0                