! Touchstone file exported from HFSS 2023.1.0
!        File:           E:/1.Project/CoxailF/seventhree.aedt
!        Generated:      9:26:43 %x4E0B%x5348  5%x6708 24, 2023
!        Design:         Resonator_out6
!        Project:        seventhree
!        Setup:          Setup1
!        Solution:       Sweep
!
! Variables:
!        Hin1 = 26mm
!        Hout = 29mm
!        L12 = 14.8mm
!        L13 = 14.7mm
!        L23 = 6.9mm
!        L34 = 12.5mm
!        L45 = 7.7mm
!        L46 = 2mm
!        L56 = 8mm
!        L67 = 12.5mm
!        L78 = 9.1mm
!        L79 = 9.6mm
!        L89 = 15.9mm
!        Rin = 5mm
!        Rin2 = 4mm
!        Rout = 15mm
!        Rport = 1.15mm
!        Rport2 = 3mm
!        Rportin = 0.5mm
!        d = 3mm
!        d01 = 2.89mm
!        d02 = 3.49mm
!        d03 = 3.65mm
!        d04 = 3.7mm
!        d05 = 3.71mm
!        d06 = 3.7mm
!        d07 = 3.66mm
!        d08 = 3.55mm
!        d09 = 2.91mm
!        d12 = 18mm
!        d12x = 15.5mm
!        d12y = 25mm
!        d23 = 18mm
!        d34 = 30mm
!        hport = 10.4mm
!        hport2 = 10.4mm
!        lport = 12mm
!        lport2 = 1mm
!        lport_2 = 12mm
!        m = 2mm
!        w12 = 12mm
!        w13 = 10mm
!        w34 = 12mm
!
# GHz S MA R 50.000000
! Terminal data exported
! Port[1] = 1
! Port[2] = 2
1.8                            0.99848211366065 -90.2885375115505 1.31978966468571E-06 178.883396278258 1.31978966468571E-06 178.883396278258 0.998483064409442 -90.3350841914895 
! Gamma         0.0541536897225256 37.7799569029406 0.0537970877007046 37.7794944657572 
! Port Impedance         50               0                50               0                
1.8004                         0.998476617326575 -90.3771604818174 1.3450490530624E-06 178.792737119876 1.34504905314426E-06 178.792737121912 0.998477519845206 -90.4240278619989 
! Gamma         0.054159771363227 37.78834637586   0.0538031183677934 37.78788388421   
! Port Impedance         50               0                50               0                
1.8008                         0.998471079284224 -90.4661671281863 1.37086612244773E-06 178.701681346872 1.37086612249932E-06 178.701681348208 0.998471932910089 -90.5133590699848 
! Gamma         0.0541658523298127 37.7967358481019 0.0538091483659151 37.7962733019916 
! Port Impedance         50               0                50               0                
1.8012                         0.998465499071492 -90.5555606820756 1.39725485018598E-06 178.610225597197 1.39725485025647E-06 178.610225598028 0.998466303130284 -90.6030811045494 
! Gamma         0.0541719326225064 37.8051253196664 0.053815177695293 37.804662719102  
! Port Impedance         50               0                50               0                
1.8016                         0.998459876219678 -90.6453444122402 1.42422960642495E-06 178.51836647729  1.4242296064689E-06 178.51836647634  0.998460630025148 -90.693197293169 
! Gamma         0.0541780122415316 37.8135147905538 0.0538212063561509 37.8130521355417 
! Port Impedance         50               0                50               0                
1.802                          0.998454210253369 -90.7355216253197 1.45180516588896E-06 178.426100547135 1.45180516593875E-06 178.426100546944 0.998454913107073 -90.7837110022637 
! Gamma         0.0541840911871118 37.8219042607643 0.053827234348712 37.8214415513107 
! Port Impedance         50               0                50               0                
1.8024                         0.998448500690322 -90.826095666396 1.47999672088871E-06 178.333424326791 1.47999672095246E-06 178.333424328911 0.998449151881366 -90.8746256377774 
! Gamma         0.05419016945947 37.8302937302981 0.0538332616731995 37.8298309664092 
! Port Impedance         50               0                50               0                
1.8028                         0.998442747041348 -90.9170699195605 1.50881989430748E-06 178.240334300626 1.50881989433769E-06 178.240334301847 0.998443345846124 -90.9659446457685 
! Gamma         0.0541962470588295 37.8386831991554 0.0538392883298364 37.8382203808376 
! Port Impedance         50               0                50               0                
1.8032                         0.998436948810185 -91.0084478084923 1.53829075298603E-06 178.146826910176 1.53829075304661E-06 178.146826912464 0.998437494492099 -91.0576715130111 
! Gamma         0.0542023239854132 37.8470726673366 0.0538453143188458 37.8466097945961 
! Port Impedance         50               0                50               0                
1.8036                         0.998431105493371 -91.1002327970465 1.56842582197642E-06 178.052898554127 1.5684258220202E-06 178.052898554296 0.998431597302574 -91.1498097676076 
! Gamma         0.0542084002394442 37.8554621348417 0.0538513396404503 37.8549992076848 
! Port Impedance         50               0                50               0                
1.804                          0.998425216580124 -91.1924283898526 1.5992420987447E-06 177.95854558364  1.5992420987355E-06 177.958545583403 0.998425653753224 -91.2423629796117 
! Gamma         0.0542144758211452 37.8638516016711 0.0538573642948727 37.863388620104  
! Port Impedance         50               0                50               0                
1.8044                         0.998419281552204 -91.2850381329248 1.63075706834821E-06 177.863764315919 1.63075706840749E-06 177.863764316551 0.998419663311979 -91.335334761664 
! Gamma         0.0542205507307388 37.8722410678249 0.0538633882823354 37.8717780318539 
! Port Impedance         50               0                50               0                
1.8048                         0.998413299883785 -91.3780656142826 1.66298871897376E-06 177.768551018297 1.66298871899501E-06 177.768551019089 0.998413625438883 -91.4287287696384 
! Gamma         0.0542266249684476 37.8806305333034 0.0538694116030608 37.8801674429347 
! Port Impedance         50               0                50               0                
1.8052                         0.998407271041312 -91.4715144645828 1.69595555766719E-06 177.672901911104 1.69595555773127E-06 177.67290191323  0.998407539585953 -91.522548703301 
! Gamma         0.054232698534494 37.8890199981068 0.0538754342572711 37.8885568533467 
! Port Impedance         50               0                50               0                
1.8056                         0.998401194483372 -91.5653883577639 1.72967662752047E-06 177.576813177231 1.72967662756475E-06 177.576813179929 0.998401405197031 -91.6167983069813 
! Gamma         0.0542387714291004 37.8974094622354 0.0538814562451885 37.8969462630901 
! Port Impedance         50               0                50               0                
1.806                          0.998395069660543 -91.6596910117007 1.76417152422609E-06 177.480280948841 1.7641715242542E-06 177.480280949296 0.998395221707634 -91.7114813702548 
! Gamma         0.0542448436524889 37.9057989256892 0.0538874775670349 37.9053356721651 
! Port Impedance         50               0                50               0                
1.8064                         0.998388896015253 -91.7544261888731 1.79946041439744E-06 177.383301310856 1.79946041441401E-06 177.383301310473 0.998388988544801 -91.8066017286406 
! Gamma         0.0542509152048817 37.9141883884687 0.0538934982230321 37.9137250805718 
! Port Impedance         50               0                50               0                
1.8068                         0.998382672981633 -91.8495976970456 1.8355640536228E-06 177.285870298132 1.83556405362601E-06 177.285870298137 0.998382705126939 -91.9021632643096 
! Gamma         0.0542569860865007 37.922577850574  0.0538995182134018 37.9221144883106 
! Port Impedance         50               0                50               0                
1.8072                         0.998376399985362 -91.94520938996  1.87250380588849E-06 177.18798390417  1.87250380590812E-06 177.187983905973 0.99837637086366 -91.9981699068081 
! Gamma         0.0542630562975678 37.9309673120052 0.0539055375383656 37.9305038953817 
! Port Impedance         50               0                50               0                
1.8076                         0.998370076443517 -92.041265168041 1.91030166314919E-06 177.089638072137 1.91030166313713E-06 177.089638071634 0.998369985155619 -92.0946256337936 
! Gamma         0.0542691258383046 37.9393567727628 0.0539115561981448 37.9388933017853 
! Port Impedance         50               0                50               0                
1.808                          0.998363701764411 -92.1377689791153 1.9489802658023E-06 176.990828691685 1.94898026581862E-06 176.990828691615 0.99836354739435 -92.1915344717853 
! Gamma         0.0542751947089329 37.9477462328468 0.0539175741929608 37.9472827075215 
! Port Impedance         50               0                50               0                
1.8084                         0.998357275347435 -92.2347248191434 1.98856292394811E-06 176.891551602805 1.98856292397043E-06 176.891551603027 0.998357056962088 -92.2889004969291 
! Gamma         0.054281262909674 37.9561356922575 0.0539235915230347 37.9556721125907 
! Port Impedance         50               0                50               0                
1.8088                         0.998350796582887 -92.3321367329663 2.02907363938994E-06 176.791802595896 2.02907363946171E-06 176.791802597482 0.998350513231607 -92.3867278357764 
! Gamma         0.0542873304407495 37.9645251509951 0.0539296081885874 37.964061516993  
! Port Impedance         50               0                50               0                
1.8092                         0.998344264851814 -92.4300088150649 2.07053712849862E-06 176.691577412688 2.07053712852104E-06 176.691577412905 0.998343915566029 -92.4850206660785 
! Gamma         0.0542933973023804 37.9729146090599 0.0539356241898399 37.9724509207287 
! Port Impedance         50               0                50               0                
1.8096                         0.998337679525831 -92.5283452103353 2.11297884542925E-06 176.590871735019 2.11297884544963E-06 176.590871734697 0.998337263318648 -92.5837832175961 
! Gamma         0.0542994634947881 37.981304066452  0.0539416395270129 37.980840323798  
! Port Impedance         50               0                50               0                
1.81                           0.998331039966945 -92.6271501148774 2.15642500697807E-06 176.489681193941 2.15642500696311E-06 176.489681193305 0.998330555832745 -92.6830197729244 
! Gamma         0.0543055290181936 37.9896935231717 0.053947654200327 37.9892297262011 
! Port Impedance         50               0                50               0                
1.8104                         0.998324345527382 -92.7264277767999 2.20090261773162E-06 176.388001368705 2.2009026177349E-06 176.388001368711 0.998323792441394 -92.7827346683341 
! Gamma         0.0543115938728177 37.9980829792193 0.0539536682100027 37.9976191279382 
! Port Impedance         50               0                50               0                
1.8108                         0.998317595549396 -92.8261824970396 2.24643949631559E-06 176.285827779124 2.24643949636327E-06 176.285827779878 0.99831697246727 -92.8829322946289 
! Gamma         0.0543176580588813 38.0064724345948 0.0539596815562602 38.0060085290095 
! Port Impedance         50               0                50               0                
1.8112                         0.998310789365085 -92.926418630197 2.2930643028192E-06 176.183155891976 2.29306430284451E-06 176.183155892432 0.998310095222449 -92.9836170980196 
! Gamma         0.054323721576605 38.0148618892987 0.0539656942393199 38.0143979294153 
! Port Impedance         50               0                50               0                
1.8116                         0.998303926296196 -93.027140585388 2.34080656672608E-06 176.079981115339 2.34080656675623E-06 176.079981116448 0.998303160008202 -93.0847935810155 
! Gamma         0.0543297844262095 38.023251343331  0.0539717062594016 38.0227873291558 
! Port Impedance         50               0                50               0                
1.812                          0.998297005653932 -93.1283528271118 2.38969671639963E-06 175.976298800398 2.38969671637537E-06 175.976298798437 0.998296166114791 -93.1864663033329 
! Gamma         0.0543358466079151 38.031640796692  0.0539777176167255 38.0311767282312 
! Port Impedance         50               0                50               0                
1.8124                         0.998290026738748 -93.2300598761361 2.43976610927561E-06 175.872104234462 2.43976610932078E-06 175.872104235011 0.998289112821251 -93.2886398828223 
! Gamma         0.0543419081219422 38.0400302493819 0.0539837283115112 38.0395661266418 
! Port Impedance         50               0                50               0                
1.8128                         0.998282988840145 -93.3322663103991 2.49104706366506E-06 175.767392653271 2.49104706366704E-06 175.767392652657 0.998281999395175 -93.391318996413 
! Gamma         0.0543479689685111 38.048419701401  0.0539897383439784 38.0479555243876 
! Port Impedance         50               0                50               0                
1.8132                         0.998275891236463 -93.4349767659291 2.54357289094875E-06 175.662159224546 2.54357289097813E-06 175.662159224824 0.998274825092492 -93.494508381077 
! Gamma         0.0543540291478418 38.0568091527495 0.0539957477143467 38.0563449214691 
! Port Impedance         50               0                50               0                
1.8136                         0.998268733194662 -93.538195937783 2.59737792979575E-06 175.556399057907 2.59737792978982E-06 175.556399057674 0.998267589157235 -93.5982128348124 
! Gamma         0.0543600886601544 38.0651986034276 0.0540017564228355 38.0647343178863 
! Port Impedance         50               0                50               0                
1.814                          0.998261513970106 -93.6419285810017 2.65249758118606E-06 175.450107198378 2.65249758117245E-06 175.450107197476 0.998260290821309 -93.7024372176454 
! Gamma         0.0543661475056686 38.0735880534355 0.0540077644696639 38.0731237136395 
! Port Impedance         50               0                50               0                
1.8144                         0.998254232806336 -93.7461795115861 2.70896834492082E-06 175.3432786258   2.70896834488864E-06 175.34327862445  0.998252929304254 -93.8071864526538 
! Gamma         0.0543722056846043 38.0819775027734 0.0540137718550512 38.081513108729  
! Port Impedance         50               0                50               0                
1.8148                         0.998246888934837 -93.8509536074913 2.76682785744491E-06 175.235908258717 2.76682785742629E-06 175.235908258261 0.998245503812996 -93.91246552701  
! Gamma         0.0543782631971811 38.0903669514415 0.0540197785792164 38.0899025031549 
! Port Impedance         50               0                50               0                
1.8152                         0.99823948157481 -93.9562558096411 2.82611493108799E-06 175.12799094594  2.82611493107275E-06 175.127990945498 0.998238013541601 -94.0182794930459 
! Gamma         0.0543843200436186 38.0987563994402 0.0540257846423782 38.0982918969175 
! Port Impedance         50               0                50               0                
1.8156                         0.998232009932922 -94.0620911229623 2.88686959493504E-06 175.019521473227 2.88686959493166E-06 175.019521471654 0.998230457671017 -94.1246334693387 
! Gamma         0.0543903762241361 38.1071458467696 0.0540317900447555 38.1066812900169 
! Port Impedance         50               0                50               0                
1.816                          0.998224473203066 -94.1684646174403 2.94913313700078E-06 174.9104945508   2.94913313702811E-06 174.910494550847 0.998222835368808 -94.2315326418194 
! Gamma         0.0543964317389529 38.1155352934299 0.0540377947865668 38.1150706824534 
! Port Impedance         50               0                50               0                
1.8164                         0.998216870566106 -94.2753814291957 3.01294814844019E-06 174.80090482775  3.01294814847258E-06 174.8009048282   0.99821514578889 -94.3389822649037 
! Gamma         0.0544024865882883 38.1239247394213 0.0540437988680306 38.1234600742273 
! Port Impedance         50               0                50               0                
1.8168                         0.998209201189619 -94.3828467615825 3.07835856887527E-06 174.690746877314 3.07835856891073E-06 174.690746878536 0.998207388071258 -94.4469876626461 
! Gamma         0.0544085407723613 38.1323141847441 0.0540498022893653 38.1318494653387 
! Port Impedance         50               0                50               0                
1.8172                         0.998201464227632 -94.4908658863085 3.14540973408412E-06 174.580015203359 3.14540973408527E-06 174.580015203805 0.998199561341695 -94.5555542299181 
! Gamma         0.0544145942913909 38.1407036293985 0.054055805050789 38.1402388557878 
! Port Impedance         50               0                50               0                
1.8176                         0.998193658820347 -94.5994441445793 3.21414842490655E-06 174.468704236253 3.21414842490877E-06 174.468704237127 0.99819166471149 -94.6646874336103 
! Gamma         0.0544206471455958 38.1490930733847 0.0540618071525199 38.1486282455749 
! Port Impedance         50               0                50               0                
1.818                          0.998185784093869 -94.7085869482638 3.28462291862787E-06 174.356808330633 3.28462291858172E-06 174.356808329516 0.998183697277146 -94.7743928138595 
! Gamma         0.0544266993351949 38.1574825167029 0.0540678085947758 38.1570176347002 
! Port Impedance         50               0                50               0                
1.8184                         0.998177839159921 -94.8182997810863 3.35688304201883E-06 174.244321764187 3.35688304200525E-06 174.244321764703 0.998175658120067 -94.8846759853021 
! Gamma         0.0544327508604066 38.1658719593534 0.0540738093777747 38.1654070231639 
! Port Impedance         50               0                50               0                
1.8188                         0.998169823115552 -94.9285881998403 3.43098022667784E-06 174.131238744809 3.43098022661773E-06 174.131238743705 0.998167546306257 -94.9955426383528 
! Gamma         0.0544388017214496 38.1742614013363 0.0540798095017341 38.1737964109663 
! Port Impedance         50               0                50               0                
1.8192                         0.998161735042838 -95.0394578356294 3.50696756611009E-06 174.017553394261 3.50696756610807E-06 174.017553394027 0.998159360885999 -95.1069985405106 
! Gamma         0.0544448519185422 38.182650842652  0.0540858089668717 38.1821857981075 
! Port Impedance         50               0                50               0                
1.8196                         0.998153574008585 -95.150914395133 3.58489987565951E-06 173.903259760196 3.58489987562846E-06 173.903259760596 0.998151100893528 -95.2190495376922 
! Gamma         0.0544509014519027 38.1910402833006 0.0540918077734048 38.1905751845877 
! Port Impedance         50               0                50               0                
1.82                           0.998145339064007 -95.2629636618984 3.66483375418573E-06 173.788351806869 3.66483375416036E-06 173.788351806937 0.9981427653467  -95.3317015555937 
! Gamma         0.0544569503217491 38.1994297232823 0.0540978059215508 38.1989645704072 
! Port Impedance         50               0                50               0                
1.8204                         0.998137029244414 -95.37561149766  3.74682764876389E-06 173.672823417165 3.74682764875175E-06 173.672823417363 0.998134353246649 -95.4449606010816 
! Gamma         0.0544629985282996 38.2078191625973 0.0541038034115268 38.2073539555663 
! Port Impedance         50               0                50               0                
1.8208                         0.998128643568882 -95.4888638436862 3.83094192157263E-06 173.556668390545 3.8309419215996E-06 173.556668391716 0.998125863577439 -95.5588327636125 
! Gamma         0.054469046071772 38.2162086012459 0.0541098002435499 38.215743340065  
! Port Impedance         50               0                50               0                
1.8212                         0.998120181039914 -95.6027267221546 3.91723891953231E-06 173.439880441361 3.91723891951568E-06 173.439880441648 0.9981172953057  -95.6733242166842 
! Gamma         0.0544750929523842 38.2245980392283 0.0541157964178369 38.2241327239037 
! Port Impedance         50               0                50               0                
1.8216                         0.998111640643104 -95.717206237556 4.00578304671487E-06 173.32245319474  4.00578304664919E-06 173.322453194836 0.998108647380266 -95.7884412193175 
! Gamma         0.054481139170354 38.2329874765448 0.0541217919346048 38.2325221070825 
! Port Impedance         50               0                50               0                
1.822                          0.998103021346779 -95.8323085781285 4.09664083983206E-06 173.204380192235 4.0966408398088E-06 173.204380191994 0.998099918731792 -95.9041901175698 
! Gamma         0.0544871847258987 38.2413769131954 0.05412778679407 38.2409114896017 
! Port Impedance         50               0                50               0                
1.8224                         0.998094322101642 -95.9480400173219 4.18988104658415E-06 173.085654881264 4.18988104654924E-06 173.085654881107 0.998091108272373 -96.0205773460823 
! Gamma         0.0544932296192359 38.2497663491805 0.0541337809964492 38.2493008714614 
! Port Impedance         50               0                50               0                
1.8228                         0.998085541840397 -96.0644069152936 4.28557470721301E-06 172.966270622406 4.28557470720309E-06 172.966270621903 0.998082214895143 -96.1376094296597 
! Gamma         0.054499273850583 38.2581557845003 0.0541397745419587 38.257690252662  
! Port Impedance         50               0                50               0                
1.8232                         0.998076679477374 -96.1814157204364 4.38379523943419E-06 172.846220679038 4.38379523945264E-06 172.84622067902  0.998073237473871 -96.2552929848855 
! Gamma         0.0545053174201572 38.266545219155  0.0541457674308148 38.2660796332036 
! Port Impedance         50               0                50               0                
1.8236                         0.998067733908144 -96.2990729709391 4.48461852673413E-06 172.725498222284 4.48461852671747E-06 172.725498222116 0.99806417486254 -96.3736347217723 
! Gamma         0.0545113603281756 38.2749346531448 0.0541517596632336 38.2744690130864 
! Port Impedance         50               0                50               0                
1.824                          0.998058704009111 -96.417385296381 4.58812301035418E-06 172.604096327366 4.5881230103035E-06 172.604096327284 0.998055025894925 -96.4926414454476 
! Gamma         0.0545174025748553 38.2833240864699 0.0541577512394312 38.2828583923107 
! Port Impedance         50               0                50               0                
1.8244                         0.998049588637112 -96.5363594193613 4.69438978505437E-06 172.482007971196 4.69438978500416E-06 172.482007970033 0.998045789384151 -96.6123200578788 
! Gamma         0.054523444160413 38.2917135191306 0.0541637421596235 38.2912477708766 
! Port Impedance         50               0                50               0                
1.8248                         0.998040386628993 -96.6560021571631 4.80350269863948E-06 172.359226028247 4.80350269867563E-06 172.359226028658 0.998036464122241 -96.7326775596343 
! Gamma         0.0545294850850657 38.300102951127  0.0541697324240262 38.2996371487844 
! Port Impedance         50               0                50               0                
1.8252                         0.998031096801186 -96.7763204234549 4.91554845614571E-06 172.235743276804 4.91554845611683E-06 172.235743276411 0.998027048879658 -96.8537210516858 
! Gamma         0.0545355253490299 38.3084923824594 0.0541757220328549 38.3080265260343 
! Port Impedance         50               0                50               0                
1.8256                         0.998021717949261 -96.8973212300288 5.03061672743788E-06 172.111552386819 5.03061672743056E-06 172.111552386807 0.998017542404829 -96.9754577372494 
! Gamma         0.0545415649525222 38.316881813128  0.0541817109863251 38.3164159026266 
! Port Impedance         50               0                50               0                
1.826                          0.998012248847479 -97.0190116885771 5.1488002601308E-06 171.986645925224 5.14880026009505E-06 171.986645924793 0.998007943423658 -97.0978949236688 
! Gamma         0.0545476038957592 38.3252712431331 0.0541876992846523 38.3248052785613 
! Port Impedance         50               0                50               0                
1.8264                         0.99800268824833 -97.1413990125078 5.27019499693064E-06 171.861016350921 5.27019499690011E-06 171.861016350955 0.997998250639027 -97.2210400243411 
! Gamma         0.054553642178957 38.3336606724748 0.0541936869280516 38.3331946538388 
! Port Impedance         50               0                50               0                
1.8268                         0.997993034882052 -97.2644905188021 5.39490019772709E-06 171.734656014203 5.39490019770902E-06 171.734656014696 0.997988462730287 -97.3449005606859 
! Gamma         0.054559679802332 38.3420501011533 0.0541996739167383 38.3415840284593 
! Port Impedance         50               0                50               0                
1.8272                         0.99798328745615 -97.3882936299114 5.52301856705318E-06 171.607557153818 5.52301856706802E-06 171.607557153841 0.997978578352728 -97.4694841641598 
! Gamma         0.0545657167661001 38.350439529169  0.0542056602509273 38.3499734024229 
! Port Impedance         50               0                50               0                
1.8276                         0.997973444654888 -97.5128158756975 5.65465638693905E-06 171.479711895464 5.65465638692976E-06 171.479711895835 0.997968596137039 -97.5947985783155 
! Gamma         0.0545717530704775 38.3588289565219 0.0542116459308334 38.35836277573   
! Port Impedance         50               0                50               0                
1.828                          0.997963505138784 -97.6380648954173 5.7899236551733E-06 171.351112249044 5.78992365516098E-06 171.351112249101 0.997958514688757 -97.7208516609103 
! Gamma         0.05457778871568 38.3672183832123 0.0542176309566715 38.3667521483806 
! Port Impedance         50               0                50               0                
1.8284                         0.997953467544076 -97.7640484397507 5.92893422967883E-06 171.221750106875 5.92893422969238E-06 171.221750106747 0.997948332587695 -97.847651386061 
! Gamma         0.0545838237019233 38.3756078092405 0.0542236153286562 38.3751415203751 
! Port Impedance         50               0                50               0                
1.8288                         0.997943330482186 -97.8907743728765 6.07180597919178E-06 171.091617242549 6.07180597915625E-06 171.091617242605 0.997938048387357 -97.9752058464506 
! Gamma         0.0545898580294231 38.3839972346066 0.054229599047002 38.3835308917136 
! Port Impedance         50               0                50               0                
1.8292                         0.997933092539161 -98.0182506745935 6.21866093966286E-06 170.960705305085 6.21866093963549E-06 170.960705305329 0.997927660614339 -98.1035232555847 
! Gamma         0.0545958916983949 38.3923866593109 0.0542355821119231 38.3919202623963 
! Port Impedance         50               0                50               0                
1.8296                         0.997922752275105 -98.1464854424919 6.36962547866997E-06 170.829005822206 6.36962547858924E-06 170.82900582174  0.997917167767711 -98.2326119501016 
! Gamma         0.0546019247090543 38.4007760833536 0.054241564523634 38.4003096324235 
! Port Impedance         50               0                50               0                
1.83                           0.997912308223593 -98.2754868941738 6.52483046558831E-06 170.696510192151 6.52483046556137E-06 170.696510192761 0.997906568318385 -98.3624803921363 
! Gamma         0.0546079570616164 38.4091655067349 0.0542475462823487 38.4086990017955 
! Port Impedance         50               0                50               0                
1.8304                         0.997901758891069 -98.4052633695243 6.68441145018136E-06 170.563209686081 6.68441145014783E-06 170.563209686602 0.997895860708459 -98.4931371717397 
! Gamma         0.0546139887562964 38.417554929455  0.0542535273882813 38.4170883705123 
! Port Impedance         50               0                50               0                
1.8308                         0.99789110275623 -98.5358233330367 6.84850884839259E-06 170.429095443292 6.84850884835005E-06 170.429095443265 0.997885043350554 -98.6245910093558 
! Gamma         0.0546200197933096 38.4259443515141 0.0542595078416455 38.4254777385742 
! Port Impedance         50               0                50               0                