! Touchstone file exported from HFSS 2023.1.0
!        File:           E:/1.Project/CoxailF/seventhree.aedt
!        Generated:      10:56:46 %x4E0B%x5348  5%x6708 24, 2023
!        Design:         Resonator_out8
!        Project:        seventhree
!        Setup:          Setup1
!        Solution:       Sweep
!
! Variables:
!        Hin1 = 26mm
!        Hout = 29mm
!        L12 = 14.8mm
!        L13 = 14.75mm
!        L23 = 6.95mm
!        L34 = 12.5mm
!        L45 = 7.7mm
!        L46 = 3mm
!        L56 = 8mm
!        L67 = 12.5mm
!        L78 = 9mm
!        L79 = 9.58mm
!        L89 = 15.85mm
!        Rin = 5mm
!        Rin2 = 4mm
!        Rout = 15mm
!        Rport = 1.15mm
!        Rport2 = 3mm
!        Rportin = 0.5mm
!        d = 3mm
!        d01 = 2.9mm
!        d02 = 3.52mm
!        d03 = 3.66mm
!        d04 = 3.7mm
!        d05 = 3.705mm
!        d06 = 3.7mm
!        d07 = 3.662mm
!        d08 = 3.544mm
!        d09 = 2.91mm
!        d12 = 18mm
!        d12x = 15.5mm
!        d12y = 25mm
!        d23 = 18mm
!        d34 = 30mm
!        hport = 10.4mm
!        hport2 = 10.4mm
!        lport = 12mm
!        lport2 = 1mm
!        lport_2 = 12mm
!        m = 2mm
!        w12 = 12mm
!        w13 = 10mm
!        w34 = 12mm
!        w46 = 9mm
!
# GHz S MA R 50.000000
! Terminal data exported
! Port[1] = 1
! Port[2] = 2
1.8                            0.998495375347921 -90.020445132293 1.08458055233082E-06 179.156750038546 1.08458055233082E-06 179.156750038546 0.998495413704913 -90.0552682685068 
! Gamma         0.0539938781822445 37.7797259897317 0.0540001558244374 37.7797610323566 
! Port Impedance         50               0                50               0                
1.8004                         0.998489919580881 -90.1085986609442 1.10528303204478E-06 179.066872248077 1.1052830319973E-06 179.066872249634 0.998489989183307 -90.1431570042781 
! Gamma         0.0539999344842229 37.7881154347154 0.0540062159390938 37.7881504820156 
! Port Impedance         50               0                50               0                
1.8008                         0.998484422401894 -90.1971332375147 1.12644117759662E-06 178.976603652919 1.12644117753207E-06 178.976603652335 0.99848452359428 -90.2314246539132 
! Gamma         0.0540059901145549 37.7965048790248 0.0540122753817665 37.7965399309996 
! Port Impedance         50               0                50               0                
1.8012                         0.998478883351545 -90.286052071905 1.14806637009232E-06 178.885940953135 1.14806637005117E-06 178.885940952726 0.998479016482499 -90.3200744068535 
! Gamma         0.0540120450734638 37.80489432266   0.0540183341526789 37.8049293793089 
! Port Impedance         50               0                50               0                
1.8016                         0.998473301963848 -90.3753584111508 1.17017030923102E-06 178.794880816441 1.17017030920179E-06 178.794880815614 0.998473467386112 -90.4091094894457 
! Gamma         0.0540180993611729 37.8132837656213 0.0540243922520542 37.8133188269437 
! Port Impedance         50               0                50               0                
1.802                          0.99846767776613 -90.4650555399694 1.19276502292609E-06 178.703419875581 1.19276502287909E-06 178.703419874603 0.998467875836633 -90.4985331654848 
! Gamma         0.0540241529779049 37.821673207909  0.0540304496801155 37.8217082739042 
! Port Impedance         50               0                50               0                
1.8024                         0.99846201027891 -90.5551467813151 1.21586287765823E-06 178.611554711163 1.21586287763411E-06 178.611554711765 0.998462241358829 -90.5883487367678 
! Gamma         0.054030205923883 37.8300626495232 0.0540365064370857 37.8300977201907 
! Port Impedance         50               0                50               0                
1.8028                         0.998456299015783 -90.6456354969454 1.23947658907128E-06 178.519281876822 1.2394765890585E-06 178.519281878323 0.998456563470596 -90.6785595436558 
! Gamma         0.0540362581993297 37.8384520904641 0.0540425625231877 37.8384871658034 
! Port Impedance         50               0                50               0                
1.8032                         0.998450543483296 -90.7365250879972 1.26361923282074E-06 178.426597879951 1.26361923283232E-06 178.426597880575 0.998450841682839 -90.7691689656482 
! Gamma         0.0540423098044677 37.846841530732  0.0540486179386441 37.8468766107425 
! Port Impedance         50               0                50               0                
1.8036                         0.99844474318082 -90.8278189955733 1.28830425588401E-06 178.333499184749 1.28830425582502E-06 178.333499183272 0.998445075499348 -90.8601804219657 
! Gamma         0.0540483607395195 37.8552309703272 0.0540546726836775 37.8552660550082 
! Port Impedance         50               0                50               0                
1.804                          0.998438897600427 -90.9195207013391 1.31354548812799E-06 178.239982216114 1.31354548806167E-06 178.239982216353 0.998439264416671 -90.9515973721445 
! Gamma         0.0540544110047077 37.8636204092498 0.0540607267585103 37.8636554986008 
! Port Impedance         50               0                50               0                
1.8044                         0.998433006226758 -91.0116337281315 1.33935715486576E-06 178.146043360848 1.33935715486077E-06 178.146043359486 0.998433407923984 -91.0434233166417 
! Gamma         0.0540604606002543 37.8720098475    0.0540667801633649 37.8720449415205 
! Port Impedance         50               0                50               0                
1.8048                         0.998427068536884 -91.1041616405773 1.36575388882978E-06 178.051678955196 1.36575388882441E-06 178.051678954364 0.998427505502958 -91.1356617974511 
! Gamma         0.0540665095263815 37.8803992850782 0.0540728328984633 37.8804343837674 
! Port Impedance         50               0                50               0                
1.8052                         0.998421084000181 -91.1971080457243 1.39275074336084E-06 177.956885296232 1.39275074332479E-06 177.956885295867 0.998421556627626 -91.2283163987307 
! Gamma         0.0540725577833115 37.8887887219845 0.0540788849640276 37.8888238253419 
! Port Impedance         50               0                50               0                
1.8056                         0.998415052078179 -91.2904765936829 1.42036320569358E-06 177.861658635909 1.42036320569014E-06 177.861658633084 0.99841556076424 -91.3213907474421 
! Gamma         0.054078605371266 37.897178158219  0.0540849363602796 37.8972132662442 
! Port Impedance         50               0                50               0                
1.806                          0.998408972224431 -91.3842709782804 1.44860721126264E-06 177.765995182051 1.44860721121038E-06 177.765995179438 0.998409517371136 -91.4148885140005 
! Gamma         0.0540846522904669 37.9055675937822 0.0540909870874412 37.9056027064744 
! Port Impedance         50               0                50               0                
1.8064                         0.998402843884358 -91.478494937727 1.47749915731947E-06 177.669891093434 1.47749915723908E-06 177.669891094314 0.998403425898587 -91.5088134129384 
! Gamma         0.0540906985411359 37.9139570286741 0.0540970371457339 37.9139921460328 
! Port Impedance         50               0                50               0                
1.8068                         0.998396666495107 -91.5731522552941 1.5070559185057E-06 177.573342489399 1.50705591846209E-06 177.573342490027 0.998397285788652 -91.6031692035805 
! Gamma         0.0540967441234945 37.9223464628951 0.0541030865353792 37.9223815849196 
! Port Impedance         50               0                50               0                
1.8072                         0.998390439485399 -91.6682467600055 1.53729486177121E-06 177.476345434476 1.53729486175247E-06 177.476345434731 0.998391096475032 -91.6979596907313 
! Gamma         0.054102789037764 37.9307358964453 0.0541091352565984 37.9307710231351 
! Port Impedance         50               0                50               0                
1.8076                         0.998384162275372 -91.7637823273414 1.56823386268915E-06 177.378895951769 1.56823386268513E-06 177.378895950073 0.998384857382912 -91.7931887253764 
! Gamma         0.0541088332841659 37.9391253293249 0.0541151833096128 37.9391604606795 
! Port Impedance         50               0                50               0                
1.808                          0.998377834276424 -91.8597628799554 1.59989132155052E-06 177.280990010561 1.59989132152858E-06 177.280990008476 0.998378567928805 -91.8888602053957 
! Gamma         0.0541148768629213 37.9475147615342 0.0541212306946434 37.947549897553  
! Port Impedance         50               0                50               0                
1.8084                         0.998371454891052 -91.9561923884056 1.63228618073531E-06 177.182623532138 1.63228618061181E-06 177.182623531814 0.998372227520393 -91.9849780762914 
! Gamma         0.0541209197742512 37.9559041930734 0.054127277411911 37.9559393337558 
! Port Impedance         50               0                50               0                
1.8088                         0.998365023512687 -92.0530748718988 1.66543794234539E-06 177.083792393601 1.66543794229842E-06 177.083792391754 0.998365835556359 -92.081546331929 
! Gamma         0.0541269620183767 37.9642936239428 0.0541333234616365 37.9643287692881 
! Port Impedance         50               0                50               0                
1.8092                         0.998358539525523 -92.1504143990492 1.69936668662899E-06 176.984492410793 1.69936668654828E-06 176.984492410596 0.998359391426222 -92.1785690152921 
! Gamma         0.0541330035955185 37.9726830541424 0.0541393688440406 37.9727182041502 
! Port Impedance         50               0                50               0                
1.8096                         0.998352002304349 -92.2482150886515 1.73409309074037E-06 176.88471935944  1.73409309072876E-06 176.884719358903 0.998352894510165 -92.2760502192525 
! Gamma         0.0541390445058973 37.9810724836727 0.0541454135593438 37.9811076383423 
! Port Impedance         50               0                50               0                
1.81                           0.998345411214366 -92.3464811104687 1.76963844884626E-06 176.784468953952 1.76963844879487E-06 176.784468954669 0.99834634417886 -92.3739940873543 
! Gamma         0.0541450847497337 37.9894619125337 0.0541514576077662 37.9894970718646 
! Port Impedance         50               0                50               0                
1.8104                         0.998338765611016 -92.445216686035 1.80602469199146E-06 176.683736859442 1.8060246919623E-06 176.683736861631 0.998339739793289 -92.4724048146136 
! Gamma         0.0541511243272481 37.9978513407258 0.0541575009895283 37.9978865047173 
! Port Impedance         50               0                50               0                
1.8108                         0.998332064839788 -92.5444260894739 1.84327440971881E-06 176.582518687767 1.84327440969903E-06 176.58251868822  0.998333080704559 -92.5712866483328 
! Gamma         0.054157163238661 38.0062407682491 0.0541635437048501 38.0062759369007 
! Port Impedance         50               0                50               0                
1.8112                         0.998325308236035 -92.6441136483329 1.88141087180616E-06 176.480809994686 1.8814108717461E-06 176.480809993129 0.998326366253717 -92.6706438889315 
! Gamma         0.0541632014841925 38.0146301951038 0.0541695857539514 38.014665368415  
! Port Impedance         50               0                50               0                
1.8116                         0.998318495124783 -92.7442837444331 1.92045805068719E-06 176.378606275862 1.92045805070924E-06 176.378606277417 0.998319595771555 -92.7704808907932 
! Gamma         0.0541692390640628 38.0230196212903 0.0541756271370522 38.0230547992604 
! Port Impedance         50               0                50               0                
1.812                          0.998311624820528 -92.8449408147362 1.96044064561525E-06 176.275902976383 1.96044064561215E-06 176.27590297777  0.998312768578419 -92.8708020631281 
! Gamma         0.0541752759784917 38.0314090468086 0.0541816678543719 38.0314442294371 
! Port Impedance         50               0                50               0                
1.8124                         0.99830469662704 -92.9460893522284 2.00138410669019E-06 176.172695484683 2.00138410665855E-06 176.172695484576 0.998305883984003 -92.9716118708536 
! Gamma         0.0541813122276992 38.039798471659  0.0541877079061302 38.0398336589453 
! Port Impedance         50               0                50               0                
1.8128                         0.998297709837156 -93.0477339068209 2.0433146600026E-06 176.068979122723 2.04331466001983E-06 176.068979123518 0.99829894128715 -93.0729148354909 
! Gamma         0.0541873478119051 38.0481878958419 0.0541937472925463 38.0482230877853 
! Port Impedance         50               0                50               0                
1.8132                         0.998290663732567 -93.1498790862689 2.08625933455807E-06 175.96474916044  2.08625933447707E-06 175.964749162001 0.998291939775636 -93.1747155360807 
! Gamma         0.0541933827313289 38.0565773193572 0.0541997860138396 38.0566125159573 
! Port Impedance         50               0                50               0                
1.8136                         0.998283557583603 -93.2525295571081 2.13024598853543E-06 175.860000805433 2.13024598850262E-06 175.860000805672 0.998284878725962 -93.2770186101154 
! Gamma         0.0541994169861901 38.0649667422054 0.0542058240702289 38.0650019434615 
! Port Impedance         50               0                50               0                
1.814                          0.998276390649014 -93.35569004561  2.17530333865912E-06 175.754729201135 2.17530333862321E-06 175.754729202424 0.998277757403129 -93.3798287544911 
! Gamma         0.0542054505767081 38.0733561643865 0.0542118614619333 38.0733913702981 
! Port Impedance         50               0                50               0                
1.8144                         0.998269162175745 -93.4593653387559 2.22146098851857E-06 175.648929432035 2.22146098852414E-06 175.648929432338 0.998270575060416 -93.4831507264778 
! Gamma         0.0542114835031022 38.0817455859009 0.0542178981891716 38.0817807964674 
! Port Impedance         50               0                50               0                
1.8148                         0.998261871398702 -93.563560285231 2.26874945971748E-06 175.542596517183 2.26874945968953E-06 175.542596517824 0.998263330939149 -93.586989344709 
! Gamma         0.0542175157655916 38.0901350067488 0.0542239342521623 38.0901702219696 
! Port Impedance         50               0                50               0                
1.8152                         0.998254517540518 -93.6682797964373 2.31720022296856E-06 175.435725410603 2.31720022293258E-06 175.435725411659 0.998256024268472 -93.6913494901917 
! Gamma         0.0542235473643952 38.0985244269303 0.054229969651124 38.0985596468048 
! Port Impedance         50               0                50               0                
1.8156                         0.998247099811312 -93.7735288475273 2.36684573098668E-06 175.328311004231 2.36684573095121E-06 175.328311003133 0.998248654265095 -93.7962361073359 
! Gamma         0.0542295782997319 38.1069138464457 0.054236004386275 38.1069490709734 
! Port Impedance         50               0                50               0                
1.816                          0.99823961740844 -93.8793124784593 2.41771945259689E-06 175.220348116929 2.41771945259307E-06 175.220348118008 0.998241220133056 -93.9016542050053 
! Gamma         0.0542356085718207 38.1153032652952 0.0542420384578335 38.1153384944755 
! Port Impedance         50               0                50               0                
1.8164                         0.998232069516241 -93.9856357950722 2.46985590782178E-06 175.11183150783  2.46985590781107E-06 175.111831508952 0.99823372106347 -94.0076088575895 
! Gamma         0.05424163818088 38.1236926834791 0.0542480718660176 38.1237279173113 
! Port Impedance         50               0                50               0                
1.8168                         0.998224455305782 -94.0925039701842 2.52329070475881E-06 175.002755862898 2.52329070471059E-06 175.002755863438 0.998226156234265 -94.1141052060976 
! Gamma         0.0542476671271285 38.1320821009975 0.0542541046110454 38.1321173394811 
! Port Impedance         50               0                50               0                
1.8172                         0.998216773934586 -94.1999222447122 2.57806057735587E-06 174.893115795102 2.57806057735558E-06 174.893115795175 0.998218524809921 -94.2211484592743 
! Gamma         0.0542536954107846 38.1404715178507 0.0542601366931345 38.1405067609851 
! Port Impedance         50               0                50               0                
1.8176                         0.998209024546369 -94.3078959288149 2.63420342513806E-06 174.782905851457 2.63420342514509E-06 174.782905851362 0.998210825941201 -94.3287438947387 
! Gamma         0.0542597230320666 38.1488609340389 0.0542661681125027 38.1488961818236 
! Port Impedance         50               0                50               0                
1.818                          0.998201206270754 -94.416430403059 2.69175835412451E-06 174.672120503105 2.69175835407754E-06 174.672120504711 0.99820305876487 -94.4368968601466 
! Gamma         0.0542657499911927 38.1572503495623 0.0542721988693677 38.1572856019966 
! Port Impedance         50               0                50               0                
1.8184                         0.99819331822299 -94.5255311196098 2.75076571946658E-06 174.560754151982 2.75076571938502E-06 174.560754152306 0.998195222403417 -94.5456127743775 
! Gamma         0.054271776288381 38.1656397644211 0.0542782289639469 38.1656750215045 
! Port Impedance         50               0                50               0                
1.8188                         0.998185359503659 -94.6352036034459 2.81126716969046E-06 174.448801118949 2.81126716967913E-06 174.448801118517 0.998187315964759 -94.6548971287444 
! Gamma         0.0542778019238494 38.1740291786156 0.0542842583964576 38.1740644403475 
! Port Impedance         50               0                50               0                
1.8192                         0.998177329198381 -94.7454534535993 2.87330569280863E-06 174.336255652745 2.87330569283886E-06 174.336255652069 0.998179338541945 -94.7647554882307 
! Gamma         0.0542838268978158 38.182418592146  0.0542902871671173 38.1824538585257 
! Port Impedance         50               0                50               0                
1.8196                         0.998169226377505 -94.8562863444216 2.93692566396477E-06 174.223111921912 2.93692566395625E-06 174.223111922256 0.998171289212855 -94.8751934927522 
! Gamma         0.0542898512104979 38.1908080050124 0.054296315276143 38.1908432760395 
! Port Impedance         50               0                50               0                
1.82                           0.998161050095792 -94.967708026876 3.00217289525009E-06 174.109364020782 3.00217289525897E-06 174.109364021637 0.998163167039884 -94.9862168584443 
! Gamma         0.0542958748621133 38.1991974172152 0.0543023427237521 38.199232692889  
! Port Impedance         50               0                50               0                
1.8204                         0.998152799392102 -95.079724329857 3.06909468723259E-06 173.995005959329 3.069094687225E-06 173.995005959473 0.998154971069621 -95.097831378979 
! Gamma         0.0543018978528795 38.2075868287545 0.0543083695101616 38.2076221090744 
! Port Impedance         50               0                50               0                
1.8208                         0.99814447328906 -95.1923411615377 3.13773988262203E-06 173.880031666907 3.13773988257027E-06 173.880031667612 0.998146700332527 -95.2100429269067 
! Gamma         0.0543079201830138 38.2159762396306 0.0543143956355886 38.216011524596  
! Port Impedance         50               0                50               0                
1.8212                         0.99813607079272 -95.3055645107454 3.20815892216977E-06 173.764434990437 3.20815892214133E-06 173.764434990625 0.998138353842594 -95.3228574550292 
! Gamma         0.0543139418527335 38.2243656498436 0.0543204211002501 38.2244009394539 
! Port Impedance         50               0                50               0                
1.8216                         0.998127590892221 -95.4194004483667 3.28040390266656E-06 173.648209692129 3.28040390269361E-06 173.648209692181 0.998129930597001 -95.4362809977992 
! Gamma         0.0543199628622558 38.2327550593938 0.0543264459043633 38.2327903536485 
! Port Impedance         50               0                50               0                
1.822                          0.998119032559432 -95.5338551287818 3.35452863716561E-06 173.531349447448 3.35452863715594E-06 173.531349447869 0.998121429575766 -95.550319672752 
! Gamma         0.0543259832117975 38.2411444682814 0.0543324700481452 38.2411797671798 
! Port Impedance         50               0                50               0                
1.8224                         0.998110394748587 -95.6489347913309 3.43058871789805E-06 173.413847847082 3.43058871788033E-06 173.413847847652 0.99811284974138 -95.6649796819667 
! Gamma         0.0543320029015757 38.2495338765067 0.0543384935318131 38.2495691800482 
! Port Impedance         50               0                50               0                
1.8228                         0.998101676395921 -95.7646457618104 3.50864158134783E-06 173.295698389754 3.50864158131333E-06 173.295698390703 0.998104190038437 -95.7802673135594 
! Gamma         0.0543380219318071 38.2579232840698 0.0543445163555842 38.2579585922538 
! Port Impedance         50               0                50               0                
1.8232                         0.998092876419278 -95.8809944540026 3.58874657654875E-06 173.176894485928 3.58874657653131E-06 173.176894485479 0.998095449393257 -95.8961889432079 
! Gamma         0.0543440403027083 38.2663126909709 0.0543505385196758 38.2663480037969 
! Port Impedance         50               0                50               0                
1.8236                         0.998083993717731 -95.9979873712376 3.67096503525507E-06 173.057429450192 3.67096503524634E-06 173.05742945042  0.998086626713492 -96.0127510357105 
! Gamma         0.054350058014496 38.2747020972104 0.0543565600243056 38.2747374146776 
! Port Impedance         50               0                50               0                
1.824                          0.998075027171174 -96.1156311079901 3.75536034594664E-06 172.937296508061 3.75536034590416E-06 172.937296508992 0.998077720887732 -96.129960146578 
! Gamma         0.0543560750673865 38.2830915027883 0.0543625808696913 38.2831268248962 
! Port Impedance         50               0                50               0                
1.8244                         0.998065975639915 -96.2339323515098 3.84199803000024E-06 172.816488788509 3.84199802996142E-06 172.816488788958 0.998068730785088 -96.247822923661 
! Gamma         0.0543620914615961 38.291480907705  0.0543686010560507 38.2915162344529 
! Port Impedance         50               0                50               0                
1.8248                         0.998056837964253 -96.3528978834888 3.93094582163579E-06 172.69499931999  3.93094582167731E-06 172.694999320861 0.998059655254782 -96.3663461088126 
! Gamma         0.0543681071973411 38.2998703119605 0.0543746205836021 38.2999056433479 
! Port Impedance         50               0                50               0                
1.8252                         0.998047612964048 -96.4725345817645 4.02227375080371E-06 172.572821035001 4.02227375082352E-06 172.572821035916 0.998050493125707 -96.4855365395882 
! Gamma         0.0543741222748374 38.3082597155553 0.0543806394525639 38.3082950515815 
! Port Impedance         50               0                50               0                
1.8256                         0.998038299438277 -96.592849422061 4.11605422940913E-06 172.44994676612  4.11605422931786E-06 172.449946766789 0.998041243205987 -96.6054011509822 
! Gamma         0.0543801366943011 38.3166491184894 0.054386657663155 38.3166844591538 
! Port Impedance         50               0                50               0                
1.826                          0.998028896164576 -96.7138494797684 4.21236214134244E-06 172.326369238313 4.21236214132442E-06 172.326369239415 0.998031904282528 -96.7259469772041 
! Gamma         0.054386150455948 38.3250385207631 0.0543926752155945 38.3250738660651 
! Port Impedance         50               0                50               0                
1.8264                         0.998019401898781 -96.835541931762 4.31127493641891E-06 172.202081079444 4.31127493643297E-06 172.202081080842 0.998022475120548 -96.8471811534941 
! Gamma         0.0543921635599938 38.3334279223766 0.054398692110102 38.3334632723155 
! Port Impedance         50               0                50               0                
1.8268                         0.998009815374444 -96.9579340582622 4.41287272768009E-06 172.077074804559 4.41287272770409E-06 172.077074806319 0.998012954463103 -96.9691109179788 
! Gamma         0.0543981760066541 38.3418173233301 0.0544047083468974 38.3418526779053 
! Port Impedance         50               0                50               0                
1.8272                         0.998000135302343 -97.0810332447361 4.51723839304347E-06 171.951342823816 4.51723839299189E-06 171.951342825224 0.998003341030592 -97.0917436135694 
! Gamma         0.0544041877961444 38.3502067236239 0.054410723926201 38.3502420828347 
! Port Impedance         50               0                50               0                
1.8276                         0.997990360369978 -97.2048469838419 4.62445768144619E-06 171.824877436776 4.62445768146345E-06 171.824877438389 0.997993633520258 -97.2150866899027 
! Gamma         0.0544101989286801 38.3585961232581 0.0544167388482337 38.3586314871039 
! Port Impedance         50               0                50               0                
1.828                          0.997980489241058 -97.329382877417 4.73461932332364E-06 171.697670828541 4.7346193232701E-06 171.697670829386 0.997983830605673 -97.3391477053255 
! Gamma         0.0544162094044765 38.3669855222331 0.0544227531132166 38.3670208907132 
! Port Impedance         50               0                50               0                
1.8284                         0.997970520554962 -97.4546486385117 4.84781514532759E-06 171.569715071646 4.84781514526296E-06 171.569715072175 0.997973930936203 -97.463934328925 
! Gamma         0.0544222192237485 38.3753749205488 0.0544287667213712 38.3754102936627 
! Port Impedance         50               0                50               0                
1.8288                         0.997960452926203 -97.580652093469 4.96414019074036E-06 171.441002121102 4.96414019067798E-06 171.44100212198  0.99796393313647 -97.5894543426055 
! Gamma         0.0544282283867114 38.3837643182057 0.0544347796729194 38.3837996959526 
! Port Impedance         50               0                50               0                
1.8292                         0.997950284943861 -97.7074011840523 5.0836928444948E-06 171.311523813577 5.08369284442179E-06 171.311523813039 0.997953835805786 -97.7157156432126 
! Gamma         0.05443423689358 38.392153715204  0.0544407919680835 38.3921890975832 
! Port Impedance         50               0                50               0                
1.8296                         0.997940015171014 -97.8349039696219 5.20657496326472E-06 171.181271864198 5.20657496329293E-06 171.181271865314 0.997943637517587 -97.8427262447065 
! Gamma         0.054440244744569 38.4005431115437 0.0544468036070858 38.4005784985548 
! Port Impedance         50               0                50               0                
1.83                           0.997929642144144 -97.9631686293615 5.33289201206392E-06 171.050237865425 5.33289201206792E-06 171.050237866656 0.997933336818837 -97.9704942803861 
! Gamma         0.0544462519398933 38.4089325072253 0.0544528145901489 38.4089678988674 
! Port Impedance         50               0                50               0                
1.8304                         0.997919164372534 -98.0922034645565 5.46275320596814E-06 170.918413284248 5.4627532059195E-06 170.918413285018 0.997922932229428 -98.0990280051639 
! Gamma         0.0544522584797672 38.4173219022488 0.0544588249174953 38.4173572985213 
! Port Impedance         50               0                50               0                
1.8308                         0.997908580337644 -98.2220169009262 5.59627165778911E-06 170.785789457662 5.59627165781728E-06 170.78578945822  0.997912422241552 -98.2283357978956 
! Gamma         0.0544582643644052 38.4257112966145 0.0544648345893473 38.4257466975168 
! Port Impedance         50               0                50               0                