! Touchstone file exported from HFSS 2023.1.0
!        File:           E:/1.Project/CoxailF/seventhree.aedt
!        Generated:      10:58:43 %x4E0A%x5348  5%x6708 25, 2023
!        Design:         Resonator_out10
!        Project:        seventhree
!        Setup:          Setup1
!        Solution:       Sweep
!
! Variables:
!        Hin1 = 26mm
!        Hout = 29mm
!        L12 = 14.8mm
!        L13 = 14.75mm
!        L23 = 6.95mm
!        L34 = 12.5mm
!        L45 = 7.75mm
!        L46 = 3.5mm
!        L56 = 8mm
!        L67 = 12.5mm
!        L78 = 8.8mm
!        L79 = 10mm
!        L89 = 15.5mm
!        Rin = 5mm
!        Rin2 = 4mm
!        Rout = 15mm
!        Rport = 1.15mm
!        Rport2 = 3mm
!        Rportin = 0.5mm
!        d = 3mm
!        d01 = 2.9mm
!        d02 = 3.55mm
!        d03 = 3.66mm
!        d04 = 3.74mm
!        d05 = 3.745mm
!        d06 = 3.76mm
!        d07 = 3.672mm
!        d08 = 3.53mm
!        d09 = 2.92mm
!        d12 = 18mm
!        d12x = 15.5mm
!        d12y = 25mm
!        d23 = 18mm
!        d34 = 30mm
!        hport = 10.4mm
!        hport2 = 10.4mm
!        lport = 12mm
!        lport2 = 1mm
!        lport_2 = 12mm
!        m = 2mm
!        w12 = 12mm
!        w13 = 10mm
!        w34 = 12mm
!        w46 = 8.5mm
!
# GHz S MA R 50.000000
! Terminal data exported
! Port[1] = 1
! Port[2] = 2
1.8                            0.998481681339237 -90.2409830938835 1.06956420783358E-06 178.934854943669 1.06956420783358E-06 178.934854943669 0.998483327086431 -90.2582762138039 
! Gamma         0.0541246023641802 37.7799046232983 0.0540315756597641 37.779802246039  
! Port Impedance         50               0                50               0                
1.8004                         0.998476151644355 -90.3298077202434 1.09021461365851E-06 178.844355806624 1.09021461371763E-06 178.84435580475  0.998477851018452 -90.346661280012 
! Gamma         0.0541306783729219 37.7882940894034 0.0540376403301682 37.7881917005226 
! Port Impedance         50               0                50               0                
1.8008                         0.998470579700355 -90.4190189810326 1.11132468715718E-06 178.753461137577 1.11132468718647E-06 178.753461133957 0.998472333483434 -90.4354284684626 
! Gamma         0.0541367537079919 37.7966835548318 0.0540437043280255 37.7965811543307 
! Port Impedance         50               0                50               0                
1.8012                         0.998464965035332 -90.5086201532299 1.13290603790953E-06 178.662167585286 1.13290603792422E-06 178.662167580303 0.998466774022215 -90.5245809962136 
! Gamma         0.0541428283696143 37.8050730195837 0.0540497676535597 37.8049706074636 
! Port Impedance         50               0                50               0                
1.8016                         0.998459307170575 -90.5986145519807 1.15497060413672E-06 178.570471764983 1.15497060413001E-06 178.570471759903 0.998461172169074 -90.6141221174988 
! Gamma         0.0541489023580132 37.8134624836594 0.0540558303069939 37.8133600599215 
! Port Impedance         50               0                50               0                
1.802                          0.998453605620452 -90.689005531163 1.17753066268968E-06 178.47837025055  1.17753066271333E-06 178.478370247104 0.998455527451621 -90.7040551242749 
! Gamma         0.0541549756734126 37.8218519470589 0.0540618922885513 37.8217495117047 
! Port Impedance         50               0                50               0                
1.8024                         0.998447859892289 -90.779796483963 1.20059883985641E-06 178.385859578613 1.20059883990799E-06 178.38585957571  0.998449839390675 -90.7943833467767 
! Gamma         0.0541610483160363 37.8302414097826 0.0540679535984549 37.8301389628133 
! Port Impedance         50               0                50               0                
1.8028                         0.998442069486239 -90.8709908434612 1.22418812243551E-06 178.292936246219 1.22418812246094E-06 178.292936240699 0.998444107500149 -90.8851101540829 
! Gamma         0.054167120286108 37.8386308718308 0.0540740142369273 37.8385284132476 
! Port Impedance         50               0                50               0                
1.8032                         0.998436233895155 -90.9625920832291 1.24831186895766E-06 178.199596699435 1.24831186897734E-06 178.199596698169 0.998438331286924 -90.9762389546919 
! Gamma         0.0541731915838513 37.8470203332035 0.0540800742041911 37.8469178630079 
! Port Impedance         50               0                50               0                
1.8036                         0.998430352604464 -91.0546037179373 1.27298382159466E-06 178.105837356797 1.27298382163891E-06 178.105837352198 0.998432510250727 -91.0677731971084 
! Gamma         0.0541792622094897 37.8554097939011 0.0540861335004687 37.8553073120942 
! Port Impedance         50               0                50               0                
1.804                          0.99842442509203 -91.1470293039738 1.29821811854378E-06 178.011654581554 1.29821811851789E-06 178.011654578455 0.998426643884002 -91.1597163704398 
! Gamma         0.0541853321632464 37.8637992539238 0.0540921921259823 37.863696760507  
! Port Impedance         50               0                50               0                
1.8044                         0.998418450828017 -91.2398724400746 1.32402930620322E-06 177.917044701431 1.32402930618695E-06 177.91704469826  0.998420731671782 -91.2520720050046 
! Gamma         0.0541914014453447 37.8721887132717 0.0540982500809539 37.8720862082463 
! Port Impedance         50               0                50               0                
1.8048                         0.99841242927475 -91.3331367679654 1.35043235279166E-06 177.82200399164  1.35043235278874E-06 177.822003991366 0.998414773091556 -91.3448436729505 
! Gamma         0.0541974700560077 37.8805781719451 0.0541043073656053 37.8804756553124 
! Port Impedance         50               0                50               0                
1.8052                         0.998406359886576 -91.4268259730148 1.37744266155053E-06 177.72652870227  1.37744266158936E-06 177.726528698238 0.998408767613132 -91.4380349888855 
! Gamma         0.0542035379954582 37.8889676299443 0.0541103639801583 37.8888651017056 
! Port Impedance         50               0                50               0                
1.8056                         0.998400242109714 -91.5209437849011 1.40507608488374E-06 177.630615015292 1.40507608489819E-06 177.630615013627 0.998402714698498 -91.5316496105188 
! Gamma         0.054209605263919 37.8973570872695 0.0541164199248342 37.897254547426  
! Port Impedance         50               0                50               0                
1.806                          0.998394075382112 -91.6154939782892 1.43334893892599E-06 177.534259079569 1.43334893892806E-06 177.534259074719 0.998396613801683 -91.6256912393148 
! Gamma         0.054215671861613 37.9057465439208 0.0541224751998543 37.9056439924738 
! Port Impedance         50               0                50               0                
1.8064                         0.998387859133288 -91.7104803735226 1.46227801831007E-06 177.437456995125 1.46227801835611E-06 177.437456991314 0.998390464368612 -91.7201636211587 
! Gamma         0.0542217377887625 37.9141359998986 0.05412852980544 37.9140334368494 
! Port Impedance         50               0                50               0                
1.8068                         0.998381592784182 -91.8059068373262 1.4918806122244E-06 177.340204814589 1.49188061224694E-06 177.340204811914 0.998384265836957 -91.8150705470346 
! Gamma         0.0542278030455901 37.9225254552029 0.054134583741812 37.9224228805529 
! Port Impedance         50               0                50               0                
1.8072                         0.998375275746994 -91.9017772835241 1.52217452004742E-06 177.242498544139 1.52217452014732E-06 177.242498541652 0.99837801763599 -91.9104158537157 
! Gamma         0.0542338676323181 37.9309149098341 0.0541406370091913 37.9308123235846 
! Port Impedance         50               0                50               0                
1.8076                         0.998368907425023 -91.9980956737697 1.55317806845338E-06 177.144334140986 1.55317806842195E-06 177.144334137947 0.998371719186423 -92.0062034244685 
! Gamma         0.0542399315491686 37.9393043637924 0.0541466896077985 37.9392017659446 
! Port Impedance         50               0                50               0                
1.808                          0.998362487212501 -92.09486601829  1.58491012826186E-06 177.045707505581 1.58491012827425E-06 177.045707503729 0.998365369900255 -92.1024371897688 
! Gamma         0.0542459947963638 37.947693817078  0.0541527415378541 37.9475912076331 
! Port Impedance         50               0                50               0                
1.8084                         0.998356014494426 -92.1920923766443 1.61739013290834E-06 176.946614499575 1.61739013296115E-06 176.946614496911 0.998358969180612 -92.1991211280322 
! Gamma         0.0542520573741254 37.9560832696912 0.0541587927995786 37.9559806486505 
! Port Impedance         50               0                50               0                
1.8088                         0.998349488646385 -92.2897788584972 1.65063809665285E-06 176.847050926183 1.650638096629E-06 176.847050922741 0.998352516421578 -92.2962592663583 
! Gamma         0.0542581192826754 37.964472721632  0.0541648433931923 37.964370088997  
! Port Impedance         50               0                50               0                
1.8092                         0.998342909034383 -92.387929624406 1.68467463394245E-06 176.747012539599 1.68467463395521E-06 176.747012537844 0.998346011008033 -92.393855681288 
! Gamma         0.0542641805222354 37.9728621729008 0.0541708933189153 37.9727595286726 
! Port Impedance         50               0                50               0                
1.8096                         0.998336275014657 -92.4865488866241 1.71952097931062E-06 176.646495039146 1.71952097939485E-06 176.64649503789  0.998339452315477 -92.4919144995767 
! Gamma         0.0542702410930269 37.9812516234978 0.0541769425769677 37.9811489676777 
! Port Impedance         50               0                50               0                
1.81                           0.998329585933494 -92.5856409099184 1.75519900831658E-06 176.545494076123 1.75519900835215E-06 176.54549407469  0.998332839709855 -92.5904398989807 
! Gamma         0.0542763009952714 37.9896410734233 0.0541829911675697 37.9895384060125 
! Port Impedance         50               0                50               0                
1.8104                         0.998322841127043 -92.6852100124046 1.79173125866681E-06 176.444005242608 1.791731258644E-06 176.44400523908  0.998326172547381 -92.6894361090602 
! Gamma         0.0542823602291903 37.9980305226773 0.0541890390909412 37.9979278436773 
! Port Impedance         50               0                50               0                
1.8108                         0.99831603992112 -92.7852605663965 1.82914095254569E-06 176.342024074553 1.82914095251941E-06 176.342024072842 0.99831945017435 -92.7889074119959 
! Gamma         0.0542884187950046 38.0064199712602 0.0541950863473021 38.0063172806721 
! Port Impedance         50               0                50               0                
1.8112                         0.998309181631013 -92.8857969992734 1.8674520197898E-06 176.239546057967 1.86745201987831E-06 176.239546053868 0.998312671926954 -92.8888581434233 
! Gamma         0.0542944766929354 38.0148094191722 0.0542011329368725 38.0147067169973 
! Port Impedance         50               0                50               0                
1.8116                         0.998302265561274 -92.9868237943636 1.90668912180916E-06 176.136566610912 1.9066891218032E-06 176.136566610599 0.99830583713109 -92.9892926932815 
! Gamma         0.0543005339232037 38.0231988664135 0.0542071788598723 38.023096152653  
! Port Impedance         50               0                50               0                
1.812                          0.998295291005523 -93.0883454918457 1.94687767604423E-06 176.033081108702 1.94687767606054E-06 176.033081107457 0.998298945102161 -93.0902155066792 
! Gamma         0.0543065904860303 38.0315883129843 0.0542132241165217 38.0314855876396 
! Port Impedance         50               0                50               0                
1.8124                         0.998288257246226 -93.1903666896672 1.98804388227263E-06 175.929084856262 1.98804388222406E-06 175.929084854231 0.998291995144881 -93.1916310847774 
! Gamma         0.0543126463816358 38.0399777588849 0.0542192687070406 38.0398750219571 
! Port Impedance         50               0                50               0                
1.8128                         0.998281163554485 -93.2928920444818 2.03021474859086E-06 175.824573103675 2.03021474860245E-06 175.824573101802 0.998284986553063 -93.2935439856899 
! Gamma         0.0543187016102408 38.0483672041154 0.0542253126316495 38.0482644556058 
! Port Impedance         50               0                50               0                
1.8132                         0.998274009189817 -93.3959262726044 2.07341811986474E-06 175.719541037389 2.0734181198479E-06 175.719541036143 0.998277918609418 -93.3959588254001 
! Gamma         0.0543247561720657 38.0567566486761 0.0542313558905688 38.0566538885859 
! Port Impedance         50               0                50               0                
1.8136                         0.998266793399923 -93.4994741509862 2.11768270577184E-06 175.613983786274 2.1176827057372E-06 175.613983783    0.99827079058533 -93.4988802786974 
! Gamma         0.0543308100673309 38.0651460925672 0.054237398484019 38.0650433208977 
! Port Impedance         50               0                50               0                
1.814                          0.998259515420462 -93.6035405182083 2.16303811104923E-06 175.50789641222  2.16303811101401E-06 175.507896411517 0.998263601740649 -93.6023130801306 
! Gamma         0.0543368632962565 38.0735355357889 0.054243440412221 38.0734327525414 
! Port Impedance         50               0                50               0                
1.8144                         0.998252174474811 -93.7081302754954 2.20951486625008E-06 175.401273917578 2.20951486626978E-06 175.401273914531 0.998256351323454 -93.7062620249818 
! Gamma         0.0543429158590626 38.0819249783415 0.0542494816753961 38.0818221835171 
! Port Impedance         50               0                50               0                
1.8148                         0.998244769773824 -93.8132483877507 2.25714446003597E-06 175.294111236118 2.25714445999721E-06 175.29411123439  0.998249038569834 -93.810731970258 
! Gamma         0.0543489677559692 38.0903144202251 0.0542555222737656 38.0902116138252 
! Port Impedance         50               0                50               0                
1.8152                         0.998237300515583 -93.9188998846105 2.3059593721903E-06 175.186403237882 2.30595937213201E-06 175.186403235887 0.998241662703645 -93.9157278357039 
! Gamma         0.054355018987196 38.0987038614401 0.0542615622075513 38.0986010434657 
! Port Impedance         50               0                50               0                
1.8156                         0.998229765885144 -94.0250898615207 2.35599310848625E-06 175.078144726802 2.35599310849274E-06 175.078144724978 0.998234222936276 -94.0212546048339 
! Gamma         0.0543610695529628 38.1070933019865 0.0542676014769756 38.1069904724389 
! Port Impedance         50               0                50               0                
1.816                          0.998222165054279 -94.1318234808354 2.40728023677367E-06 174.969330436249 2.40728023675507E-06 174.969330433831 0.998226718466398 -94.1273173259855 
! Gamma         0.054367119453489 38.1154827418647 0.054273640082261 38.1153799007451 
! Port Impedance         50               0                50               0                
1.8164                         0.998214497181205 -94.2391059729375 2.45985642402259E-06 174.859955032006 2.45985642399263E-06 174.859955030815 0.998219148479715 -94.2339211133937 
! Gamma         0.0543731686889942 38.1238721810748 0.0542796780236307 38.1237693283845 
! Port Impedance         50               0                50               0                
1.8168                         0.998206761410317 -94.3469426373824 2.51375847505189E-06 174.750013110906 2.51375847500474E-06 174.7500131097   0.998211512148706 -94.3410711482874 
! Gamma         0.0543792172596978 38.1322616196171 0.0542857153013083 38.1321587553572 
! Port Impedance         50               0                50               0                
1.8172                         0.998198956871907 -94.4553388440652 2.56902437320134E-06 174.639499196201 2.56902437322735E-06 174.63949919416  0.998203808632359 -94.4487726800075 
! Gamma         0.0543852651658188 38.1406510574918 0.054291751915518 38.1405481816634 
! Port Impedance         50               0                50               0                
1.8176                         0.998191082681877 -94.5643000344125 2.62569332203298E-06 174.528407736813 2.6256933219936E-06 174.528407737035 0.998196037075904 -94.5570310271487 
! Gamma         0.0543913124075764 38.1490404946991 0.0542977878664844 38.1489376073035 
! Port Impedance         50               0                50               0                
1.818                          0.998183137941448 -94.6738317225975 2.68380578834923E-06 174.416733113436 2.68380578838032E-06 174.416733112005 0.998188196610535 -94.6658515787235 
! Gamma         0.0543973589851895 38.1574299312392 0.0543038231544327 38.1573270322776 
! Port Impedance         50               0                50               0                
1.8184                         0.998175121736858 -94.7839394967818 2.74340354824026E-06 174.304469625277 2.74340354825105E-06 174.304469624493 0.998180286353125 -94.7752397953515 
! Gamma         0.0544034048988771 38.1658193671124 0.0543098577795887 38.1657164565859 
! Port Impedance         50               0                50               0                
1.8188                         0.998167033139059 -94.8946290203826 2.80452973324881E-06 174.191611501398 2.80452973323386E-06 174.191611500863 0.998172305405939 -94.8852012104721 
! Gamma         0.0544094501488577 38.1742088023188 0.0543158917421786 38.1741058802286 
! Port Impedance         50               0                50               0                
1.8192                         0.998158871203398 -95.0059060333661 2.86722887967636E-06 174.078152886059 2.8672288796636E-06 174.078152885113 0.998164252856337 -94.9957414315829 
! Gamma         0.05441549473535 38.1825982368588 0.0543219250424293 38.182495303206  
! Port Impedance         50               0                50               0                
1.8196                         0.998150634969298 -95.1177763535686 2.93154697916642E-06 173.964087849433 2.9315469792047E-06 173.964087848264 0.998156127776466 -95.1068661415036 
! Gamma         0.0544215386585725 38.1909876707325 0.054327957680568 38.1908847255182 
! Port Impedance         50               0                50               0                
1.82                           0.998142323459929 -95.2302458780449 2.9975315315256E-06 173.849410379241 2.99753153154407E-06 173.849410379756 0.998147929222952 -95.218581099666 
! Gamma         0.0544275819187435 38.19937710394   0.0543339896568222 38.1992741471655 
! Port Impedance         50               0                50               0                
1.8204                         0.998133935681862 -95.3433205844464 3.06523159957277E-06 173.734114384905 3.06523159958912E-06 173.734114382735 0.998139656236581 -95.3308921434323 
! Gamma         0.0544336245160812 38.2077665364818 0.0543400209714199 38.2076635681482 
! Port Impedance         50               0                50               0                
1.8208                         0.998125470624734 -95.4570065324268 3.13469786622973E-06 173.61819368525  3.13469786624475E-06 173.61819368397  0.99813130784197 -95.4438051894391 
! Gamma         0.0544396664508038 38.2161559683579 0.0543460516245894 38.2160529884663 
! Port Impedance         50               0                50               0                
1.8212                         0.998116927260882 -95.5713098650797 3.20598269383769E-06 173.501642019548 3.20598269384804E-06 173.501642019055 0.998122883047233 -95.5573262349717 
! Gamma         0.0544457077231293 38.2245453995686 0.054352081616559 38.2244424081202 
! Port Impedance         50               0                50               0                
1.8216                         0.998108304544986 -95.6862368104053 3.27914018603914E-06 173.384453042389 3.27914018601514E-06 173.384453043286 0.998114380843637 -95.671461359366 
! Gamma         0.0544517483332755 38.2329348301141 0.0543581109475572 38.2328318271101 
! Port Impedance         50               0                50               0                
1.822                          0.998099601413692 -95.8017936828097 3.35422625182221E-06 173.266620318527 3.35422625184668E-06 173.26662031604  0.998105800205253 -95.7862167254412 
! Gamma         0.0544577882814601 38.2413242599946 0.0543641396178123 38.2412212454361 
! Port Impedance         50               0                50               0                
1.8224                         0.998090816785234 -95.9179868846369 3.43129867268785E-06 173.148137318518 3.43129867272156E-06 173.148137317372 0.998097140088591 -95.9015985809629 
! Gamma         0.0544638275679008 38.2497136892104 0.0543701676275525 38.2496106630985 
! Port Impedance         50               0                50               0                
1.8228                         0.998081949559032 -96.0348229077326 3.51041717199794E-06 173.028997430842 3.5104171719673E-06 173.028997430066 0.998088399432233 -96.0176132601371 
! Gamma         0.0544698661928151 38.2581031177616 0.0543761949770056 38.2580000800975 
! Port Impedance         50               0                50               0                
1.8232                         0.998072998615301 -96.1523083350436 3.59164348749405E-06 172.909193945048 3.59164348741611E-06 172.909193943784 0.998079577156454 -96.1342671851369 
! Gamma         0.0544759041564204 38.2664925456485 0.0543822216663992 38.2663894964334 
! Port Impedance         50               0                50               0                
1.8236                         0.99806396281463 -96.2704498422512 3.67504144666106E-06 172.78872005967  3.67504144663409E-06 172.788720058471 0.998070672162835 -96.2515668676621 
! Gamma         0.054481941458934 38.2748819728713 0.0543882476959602 38.2747789121064 
! Port Impedance         50               0                50               0                
1.824                          0.998054840997564 -96.3892541994409 3.76067704531408E-06 172.667568876862 3.76067704531513E-06 172.667568876303 0.998061683333862 -96.3695189105319 
! Gamma         0.0544879781005729 38.2832713994302 0.0543942730659148 38.2831683271166 
! Port Impedance         50               0                50               0                
1.8244                         0.998045631984167 -96.5087282728088 3.84861852947937E-06 172.545733399682 3.84861852945679E-06 172.545733399308 0.998052609532518 -96.4881300093137 
! Gamma         0.0544940140815543 38.2916608253255 0.0544002977764883 38.2915577414644 
! Port Impedance         50               0                50               0                
1.8248                         0.998036334573579 -96.6288790264056 3.93893648016305E-06 172.423206536543 3.93893648010276E-06 172.423206535023 0.998043449601868 -96.6074069539861 
! Gamma         0.0545000494020951 38.3000502505573 0.0544063218279054 38.2999471551499 
! Port Impedance         50               0                50               0                
1.8252                         0.998026947543555 -96.74971352392  4.031703902387E-06 172.299981086569 4.03170390237802E-06 172.29998108634  0.998034202364624 -96.7273566306394 
! Gamma         0.0545060840624119 38.3084396751259 0.0544123452203895 38.3083365681734 
! Port Impedance         50               0                50               0                
1.8256                         0.998017469650005 -96.8712389305006 4.12699631760874E-06 172.176049753588 4.12699631753539E-06 172.176049753448 0.99802486662271 -96.8479860232129 
! Gamma         0.0545121180627215 38.3168290990315 0.0544183679541632 38.3167259805351 
! Port Impedance         50               0                50               0                
1.826                          0.998007899626501 -96.9934625146204 4.22489185967359E-06 172.051405132817 4.22489185967028E-06 172.051405132048 0.998015441156805 -96.9693022152713 
! Gamma         0.0545181514032405 38.3252185222743 0.0544243900294478 38.3251153922352 
! Port Impedance         50               0                50               0                
1.8264                         0.997998236183794 -97.1163916499813 4.32547137563627E-06 171.92603971465  4.32547137558086E-06 171.926039713499 0.998005924725884 -97.0913123918197 
! Gamma         0.0545241840841852 38.3336079448545 0.0544304114464637 38.333504803274  
! Port Impedance         50               0                50               0                
1.8268                         0.997988478009301 -97.2400338174635 4.42881852978387E-06 171.799945878705 4.42881852980196E-06 171.799945877761 0.997996316066741 -97.2140238411604 
! Gamma         0.054530216105772 38.3419973667724 0.0544364322054297 38.3418942136516 
! Port Impedance         50               0                50               0                
1.8272                         0.99797862376659 -97.3643966071177 4.53501991328443E-06 171.673115894922 4.53501991323765E-06 171.673115893398 0.997986613893497 -97.3374439567897 
! Gamma         0.0545362474682171 38.3503867880281 0.054442452306564 38.3502836233684 
! Port Impedance         50               0                50               0                
1.8276                         0.997968672094841 -97.4894877202036 4.64416515705237E-06 171.545541920111 4.64416515695724E-06 171.545541919796 0.997976816897106 -97.4615802393391 
! Gamma         0.0545422781717366 38.3587762086219 0.0544484717500832 38.3586730324245 
! Port Impedance         50               0                50               0                
1.828                          0.997958621608303 -97.6153149712742 4.75634705117623E-06 171.417215996669 4.75634705108774E-06 171.417215996416 0.997966923744834 -97.5864402985589 
! Gamma         0.0545483082165463 38.367165628554  0.0544544905362029 38.3670624408201 
! Port Impedance         50               0                50               0                
1.8284                         0.997948470895727 -97.7418862903091 4.87166166770118E-06 171.288130050309 4.87166166770349E-06 171.288130050133 0.997956933079738 -97.7120318553472 
! Gamma         0.0545543376028621 38.3755550478246 0.0544605086651377 38.3754518485556 
! Port Impedance         50               0                50               0                
1.8288                         0.997938218519791 -97.8692097248957 4.99020849015173E-06 171.158275887103 4.99020849015701E-06 171.158275886714 0.997946843520121 -97.8383627438261 
! Gamma         0.0545603663308998 38.3839444664339 0.0544665261371013 38.3838412556311 
! Port Impedance         50               0                50               0                
1.8292                         0.997927863016505 -97.9972934424623 5.11209054757552E-06 171.027645189632 5.11209054761223E-06 171.027645189221 0.997936653658974 -97.9654409134641 
! Gamma         0.054566394400875 38.3923338843822 0.0544725429523062 38.3922306620468 
! Port Impedance         50               0                50               0                
1.8296                         0.997917402894602 -98.1261457325618 5.23741455521982E-06 170.896229520946 5.2374145552005E-06 170.896229520148 0.997926362063405 -98.0932744312476 
! Gamma         0.0545724218130031 38.4007233016696 0.0544785591109644 38.4006200678029 
! Port Impedance         50               0                50               0                
1.83                           0.997906836634914 -98.2557750092105 5.36629106071213E-06 170.764020313811 5.36629106064998E-06 170.764020313038 0.99791596727406 -98.2218714839036 
! Gamma         0.0545784485674994 38.4091127182965 0.0544845746132869 38.4090094728998 
! Port Impedance         50               0                50               0                
1.8304                         0.997896162689722 -98.3861898132792 5.49883459708891E-06 170.631008873812 5.49883459704768E-06 170.631008873456 0.997905467804509 -98.3512403801717 
! Gamma         0.0545844746645794 38.4175021342629 0.054490589459484 38.4173988773376 
! Port Impedance         50               0                50               0                
1.8308                         0.997885379482102 -98.517398814944 5.63516384230177E-06 170.497186377173 5.63516384225031E-06 170.497186376727 0.997894862140638 -98.4813895531316 
! Gamma         0.054590500104458 38.4258915495691 0.0544966036497656 38.4257882811166 
! Port Impedance         50               0                50               0                