! Touchstone file exported from HFSS 2023.1.0
!        File:           E:/1.Project/CoxailF/seventhree.aedt
!        Generated:      11:46:02 %x4E0A%x5348  5%x6708 25, 2023
!        Design:         Resonator_out10
!        Project:        seventhree
!        Setup:          Setup1
!        Solution:       Sweep
!
! Variables:
!        Hin1 = 26mm
!        Hout = 29mm
!        L12 = 14.8mm
!        L13 = 14.75mm
!        L23 = 6.95mm
!        L34 = 12.5mm
!        L45 = 7.8mm
!        L46 = 3.7mm
!        L56 = 8.2mm
!        L67 = 12.5mm
!        L78 = 8.5mm
!        L79 = 10.8mm
!        L89 = 15.3mm
!        Rin = 5mm
!        Rin2 = 4mm
!        Rout = 15mm
!        Rport = 1.15mm
!        Rport2 = 3mm
!        Rportin = 0.5mm
!        d = 3mm
!        d01 = 2.9mm
!        d02 = 3.53mm
!        d03 = 3.66mm
!        d04 = 3.74mm
!        d05 = 3.745mm
!        d06 = 3.74mm
!        d07 = 3.672mm
!        d08 = 3.52mm
!        d09 = 2.92mm
!        d12 = 18mm
!        d12x = 15.5mm
!        d12y = 25mm
!        d23 = 18mm
!        d34 = 30mm
!        hport = 10.4mm
!        hport2 = 10.4mm
!        lport = 12mm
!        lport2 = 1mm
!        lport_2 = 12mm
!        m = 2mm
!        w12 = 12mm
!        w13 = 10mm
!        w34 = 12mm
!        w46 = 8.5mm
!
# GHz S MA R 50.000000
! Terminal data exported
! Port[1] = 1
! Port[2] = 2
1.8                            0.998492592810143 -90.0749533564151 1.0838172854206E-06 179.088326521916 1.0838172854206E-06 179.088326521916 0.99850072368201 -90.1259659607568 
! Gamma         0.0540660341966495 37.7798279272558 0.0538044590817984 37.7795020843917 
! Port Impedance         50               0                50               0                
1.8004                         0.998487124828463 -90.1632423964187 1.10464602411431E-06 178.998277654886 1.1046460238736E-06 178.998277639614 0.998495298231612 -90.2140249612572 
! Gamma         0.0540721017402807 37.7882173843557 0.0538104906044714 37.7878915036388 
! Port Impedance         50               0                50               0                
1.8008                         0.998481615273742 -90.2519136451441 1.12593616733994E-06 178.907837106728 1.12593616738041E-06 178.907837113788 0.998489831821021 -90.3024631180601 
! Gamma         0.0540781686110953 37.7966068407797 0.0538165214581228 37.7962809222145 
! Port Impedance         50               0                50               0                
1.8012                         0.998476063683962 -90.3409703269448 1.14769931115479E-06 178.817001579931 1.14769931124416E-06 178.817001587933 0.998484323998477 -90.3912836107416 
! Gamma         0.054084234809318 37.8049962965282 0.0538225516429751 37.804670340119  
! Port Impedance         50               0                50               0                
1.8016                         0.998470469590486 -90.4304157035388 1.1699473784386E-06 178.725767759384 1.16994737843353E-06 178.725767756931 0.998478774305798 -90.4804896554614 
! Gamma         0.0540903003351732 37.8133857516012 0.0538285811592508 37.8130597573525 
! Port Impedance         50               0                50               0                
1.802                          0.998464832517936 -90.5202530745594 1.19269262830052E-06 178.634132248798 1.19269262808774E-06 178.634132239257 0.998473182278266 -90.5700845054971 
! Gamma         0.054096365188885 37.8217752059992 0.053834610007172 37.8214491739153 
! Port Impedance         50               0                50               0                
1.8024                         0.998459151984075 -90.610485778116 1.21594766684772E-06 178.542091634026 1.21594766687225E-06 178.542091634772 0.998467547444517 -90.6600714517887 
! Gamma         0.0541024293706776 37.8301646597222 0.0538406381869608 37.8298385898076 
! Port Impedance         50               0                50               0                
1.8028                         0.998453427499686 -90.7011171913638 1.23972545880878E-06 178.449642468813 1.23972545850608E-06 178.449642452198 0.998461869326424 -90.7504538234922 
! Gamma         0.0541084928807748 37.8385541127706 0.0538466656988393 37.8382280050295 
! Port Impedance         50               0                50               0                
1.8032                         0.99844765856845 -90.7921507310857 1.26403933742032E-06 178.356781240401 1.26403933742751E-06 178.356781238954 0.998456147438975 -90.8412349885438 
! Gamma         0.0541145557194007 37.8469435651445 0.0538526925430293 37.8466174195814 
! Port Impedance         50               0                50               0                
1.8036                         0.998441844686817 -90.8835898542827 1.28890301776829E-06 178.263504424617 1.28890301765877E-06 178.263504419351 0.998450381290154 -90.9324183542333 
! Gamma         0.0541206178867789 37.8553330168442 0.0538587187197526 37.8550068334634 
! Port Impedance         50               0                50               0                
1.804                          0.998435985343877 -90.9754380587767 1.31433060739277E-06 178.16980843784  1.31433060722982E-06 178.169808428045 0.998444570380818 -91.0240073677887 
! Gamma         0.0541266793831328 37.8637224678698 0.0538647442292307 37.8633962466758 
! Port Impedance         50               0                50               0                
1.8044                         0.99843008002123 -91.0676988838237 1.34033661950954E-06 178.075689655542 1.34033661937361E-06 178.075689651579 0.998438714204568 -91.1160055169711 
! Gamma         0.0541327402086859 37.8721119182217 0.0538707690716852 37.8717856592187 
! Port Impedance         50               0                50               0                
1.8048                         0.998424128192851 -91.1603759107377 1.36693598597065E-06 177.981144420367 1.36693598600594E-06 177.981144423608 0.998432812247621 -91.20841633068  
! Gamma         0.0541388003636616 37.8805013679001 0.0538767932473374 37.8801750710925 
! Port Impedance         50               0                50               0                
1.8052                         0.99841812932495 -91.2534727635268 1.39414407024627E-06 177.886169022132 1.39414407012267E-06 177.88616901822  0.998426863988678 -91.3012433795703 
! Gamma         0.0541448598482828 37.8888908169051 0.0538828167564087 37.8885644822973 
! Port Impedance         50               0                50               0                
1.8056                         0.998412082875835 -91.3469931095409 1.42197668137296E-06 177.790759700663 1.42197668141191E-06 177.790759699937 0.99842086889879 -91.3944902766801 
! Gamma         0.0541509186627727 37.897280265237  0.0538888395991201 37.8969538928334 
! Port Impedance         50               0                50               0                
1.806                          0.998405988295765 -91.4409406601309 1.45045008901714E-06 177.694912675191 1.45045008903691E-06 177.694912674623 0.998414826441218 -91.4881606780698 
! Gamma         0.0541569768073542 37.905669712896  0.0538948617756927 37.9053433027009 
! Port Impedance         50               0                50               0                
1.8064                         0.998399845026807 -91.5353191713208 1.47958103709877E-06 177.598624096871 1.47958103698422E-06 177.598624090197 0.998408736071296 -91.582258283474 
! Gamma         0.0541630342822498 37.9140591598824 0.0539008832863474 37.9137327119001 
! Port Impedance         50               0                50               0                
1.8068                         0.998393652502683 -91.6301324444921 1.50938675989892E-06 177.501890072246 1.50938675967216E-06 177.501890062593 0.998402597236284 -91.6767868369638 
! Gamma         0.0541690910876822 37.9224486061963 0.0539069041313049 37.9221221204313 
! Port Impedance         50               0                50               0                
1.8072                         0.998387410148618 -91.7253843270801 1.5398849976247E-06 177.404706660912 1.53988499755218E-06 177.404706662199 0.998396409375225 -91.7717501276229 
! Gamma         0.0541751472238739 37.9308380518381 0.0539129243107859 37.9305115282946 
! Port Impedance         50               0                50               0                
1.8076                         0.998381117381184 -91.8210787132853 1.57109401329586E-06 177.307069877384 1.57109401342321E-06 177.307069883913 0.998390171918792 -91.8671519902354 
! Gamma         0.0541812026910472 37.9392274968078 0.053918943825011 37.9389009354903 
! Port Impedance         50               0                50               0                
1.808                          0.998374773608143 -91.9172195447954 1.60303261010703E-06 177.208975713792 1.60303261016414E-06 177.208975714718 0.998383884289135 -91.9629963059865 
! Gamma         0.0541872574894243 37.9476169411058 0.0539249626742004 37.9472903420186 
! Port Impedance         50               0                50               0                
1.8084                         0.998368378228276 -92.0138108115238 1.6357201478571E-06 177.11042006491  1.63572014788124E-06 177.110420066206 0.998377545899727 -92.0592870031765 
! Gamma         0.0541933116192272 37.9560063847323 0.0539309808585746 37.9556797478797 
! Port Impedance         50               0                50               0                
1.8088                         0.998361930631224 -92.1108565523599 1.66917656269789E-06 177.011398826032 1.66917656231511E-06 177.011398811792 0.998371156155203 -92.156028057948 
! Gamma         0.0541993650806778 37.9643958276875 0.0539369983783537 37.9640691530738 
! Port Impedance         50               0                50               0                
1.8092                         0.998355430197315 -92.2083608559347 1.7034223841848E-06 176.911907779382 1.70342238408115E-06 176.911907774667 0.998364714451197 -92.2532234950273 
! Gamma         0.054205417873998 37.9727852699716 0.0539430152337578 37.9724585576012 
! Port Impedance         50               0                50               0                
1.8096                         0.998348876297386 -92.3063278614009 1.73847875764178E-06 176.811942711932 1.73847875746445E-06 176.811942704264 0.998358220174173 -92.3508773884787 
! Gamma         0.0542114699994093 37.9811747115848 0.0539490314250067 37.980847961462  
! Port Impedance         50               0                50               0                
1.81                           0.998342268292609 -92.4047617592273 1.77436746252249E-06 176.711499336557 1.77436746267531E-06 176.71149934314  0.99835167270126 -92.4489938624741 
! Gamma         0.0542175214571333 37.9895641525275 0.0539550469523203 37.9892373646566 
! Port Impedance         50               0                50               0                
1.8104                         0.998335605534308 -92.50366679201  1.81111093424793E-06 176.610573321914 1.81111093405761E-06 176.610573314271 0.998345071400069 -92.5475770920772 
! Gamma         0.0542235722473913 37.9979535927996 0.0539610618159182 37.997626767185  
! Port Impedance         50               0                50               0                
1.8108                         0.998328887363773 -92.6030472552969 1.84873228555916E-06 176.509160262734 1.84873228534667E-06 176.509160256314 0.998338415628525 -92.646631304042 
! Gamma         0.0542296223704047 38.0063430324017 0.0539670760160201 38.0060161690477 
! Port Impedance         50               0                50               0                
1.8112                         0.998322113112065 -92.7029074984304 1.88725532980178E-06 176.407255704485 1.88725532977227E-06 176.407255702702 0.998331704734675 -92.7461607776268 
! Gamma         0.0542356718263944 38.0147324713337 0.0539730895528454 38.0144055702446 
! Port Impedance         50               0                50               0                
1.8116                         0.998315282099829 -92.8032519254049 1.92670460501866E-06 176.304855166938 1.92670460479292E-06 176.3048551574   0.998324938056511 -92.8461698454245 
! Gamma         0.0542417206155816 38.023121909596  0.0539791024266134 38.0227949707762 
! Port Impedance         50               0                50               0                
1.812                          0.998308393637087 -92.9040849957418 1.96710539649692E-06 176.201954061517 1.96710539654832E-06 176.20195406242  0.998318114921771 -92.9466628942079 
! Gamma         0.0542477687381869 38.0315113471888 0.0539851146375433 38.0311843706425 
! Port Impedance         50               0                50               0                
1.8124                         0.99830144702304 -93.0054112253814 2.0084837644404E-06 176.098547800518 2.00848376437918E-06 176.098547798092 0.998311234647752 -93.0476443657922 
! Gamma         0.0542538161944312 38.0399007841123 0.0539911261858542 38.0395737698439 
! Port Impedance         50               0                50               0                
1.8128                         0.998294441545858 -93.1072351875921 2.05086656797284E-06 175.994631688725 2.05086656786737E-06 175.994631685207 0.998304296541105 -93.1491187579136 
! Gamma         0.054259862984535 38.0482902203668 0.0539971370717651 38.0479631683805 
! Port Impedance         50               0                50               0                
1.8132                         0.998287376482462 -93.2095615138978 2.09428149394065E-06 175.890200995005 2.09428149408851E-06 175.890201000326 0.998297299897634 -93.2510906251255 
! Gamma         0.0542659091087187 38.0566796559524 0.0540031472954948 38.0563525662526 
! Port Impedance         50               0                50               0                
1.8136                         0.998280251098315 -93.3123948950235 2.13875708467301E-06 175.785250926399 2.13875708452645E-06 175.785250923118 0.99829024400209 -93.353564579712 
! Gamma         0.0542719545672027 38.0650690908693 0.054009156857262 38.0647419634604 
! Port Impedance         50               0                50               0                
1.814                          0.998273064647191 -93.4157400818592 2.18432276730309E-06 175.679776630961 2.1843227671928E-06 175.679776622152 0.998283128127954 -93.4565452926192 
! Gamma         0.0542779993602071 38.0734585251179 0.0540151657572854 38.073131360004  
! Port Impedance         50               0                50               0                
1.8144                         0.998265816370952 -93.5196018864438 2.23100888363014E-06 175.573773170753 2.23100888343499E-06 175.57377316549  0.998275951537221 -93.560037494405 
! Gamma         0.054284043487952 38.0818479586983 0.0540211739957834 38.0815207558838 
! Port Impedance         50               0                50               0                
1.8148                         0.998258505499309 -93.6239851829683 2.27884672261752E-06 175.467235569478 2.27884672267553E-06 175.467235568413 0.998268713480176 -93.6640459762079 
! Gamma         0.0542900869506574 38.0902373916107 0.0540271815729745 38.0899101510999 
! Port Impedance         50               0                50               0                
1.8152                         0.998251131249589 -93.7288949087985 2.32786855341717E-06 175.360158791802 2.32786855346314E-06 175.360158794476 0.998261413195169 -93.7685755907344 
! Gamma         0.0542961297485429 38.0986268238554 0.0540331884890768 38.0982995456526 
! Port Impedance         50               0                50               0                
1.8156                         0.998243692826486 -93.8343360655194 2.37810765760311E-06 175.252537717933 2.37810765756024E-06 175.252537716418 0.998254049908381 -93.8736312532667 
! Gamma         0.0543021718818283 38.1070162554326 0.0540391947443085 38.1066889395421 
! Port Impedance         50               0                50               0                
1.816                          0.998236189421811 -93.9403137199994 2.42959836623504E-06 175.144367166393 2.42959836624174E-06 175.144367166447 0.998246622833579 -93.9792179426899 
! Gamma         0.054308213350733 38.1154056863425 0.0540452003388875 38.1150783327686 
! Port Impedance         50               0                50               0                
1.8164                         0.998228620214239 -94.0468330054774 2.48237609587608E-06 175.035641893006 2.48237609586255E-06 175.035641891092 0.998239131171883 -94.0853407025405 
! Gamma         0.0543142541554765 38.1237951165853 0.0540512052730319 38.1234677253323 
! Port Impedance         50               0                50               0                
1.8168                         0.998220984369044 -94.1538991226709 2.53647738651102E-06 174.926356580264 2.53647738657967E-06 174.926356580451 0.998231574111507 -94.1920046420755 
! Gamma         0.0543202942962781 38.1321845461612 0.0540572095469593 38.1318571172334 
! Port Impedance         50               0                50               0                
1.8172                         0.99821328103783 -94.2615173409073 2.59193994168595E-06 174.816505844569 2.59193994158415E-06 174.816505842238 0.998223950827505 -94.2992149373629 
! Gamma         0.0543263337733567 38.1405739750706 0.0540632131608875 38.1402465084722 
! Port Impedance         50               0                50               0                
1.8176                         0.998205509358256 -94.3696929992783 2.64880266847089E-06 174.706084226341 2.64880266860121E-06 174.706084226896 0.998216260481514 -94.4069768323952 
! Gamma         0.0543323725869316 38.1489634033135 0.0540692161150339 38.1486358990489 
! Port Impedance         50               0                50               0                
1.818                          0.998197668453758 -94.4784315078174 2.70710572192205E-06 174.595086201309 2.70710572182124E-06 174.595086197223 0.998208502221478 -94.5152956402243 
! Gamma         0.0543384107372215 38.1573528308903 0.054075218409616 38.1570252889636 
! Port Impedance         50               0                50               0                
1.8184                         0.998189757433255 -94.5877383487033 2.76689054737875E-06 174.483506166161 2.76689054729956E-06 174.483506165056 0.998200675181381 -94.6241767441207 
! Gamma         0.0543444482244452 38.165742257801  0.054081220044851 38.1654146782167 
! Port Impedance         50               0                50               0                
1.8188                         0.998181775390859 -94.6976190774861 2.82819992770641E-06 174.371338436093 2.82819992776725E-06 174.371338436635 0.998192778480961 -94.7336255987559 
! Gamma         0.0543504850488213 38.1741316840461 0.0540872210209562 38.1738040668083 
! Port Impedance         50               0                50               0                
1.8192                         0.998173721405567 -94.8080793243408 2.89107803164981E-06 174.258577270901 2.89107803165695E-06 174.258577269495 0.998184811225426 -94.8436477314092 
! Gamma         0.0543565212105682 38.1825211096256 0.0540932213381486 38.1821934547387 
! Port Impedance         50               0                50               0                
1.8196                         0.998165594540959 -94.9191247953462 2.95557046196459E-06 174.145216828526 2.95557046186149E-06 174.145216825207 0.998176772505155 -94.9542487431995 
! Gamma         0.0543625567099044 38.1909105345398 0.0540992209966451 38.190582842008  
! Port Impedance         50               0                50               0                
1.82                           0.998157393844871 -95.03076127379  3.0217243088135E-06 174.031251207441 3.02172430867868E-06 174.031251204767 0.998168661395399 -95.0654343103422 
! Gamma         0.0543685915470481 38.199299958789  0.0541052199966626 38.1989722286166 
! Port Impedance         50               0                50               0                
1.8204                         0.998149118349078 -95.1429946215029 3.08958820237111E-06 173.916674414951 3.08958820222801E-06 173.916674410012 0.998160476955975 -95.177210185433 
! Gamma         0.0543746257222173 38.2076893823733 0.0541112183384178 38.2073616145645 
! Port Impedance         50               0                50               0                
1.8208                         0.998140767068956 -95.2558307802193 3.15921236932292E-06 173.80148037756  3.15921236943135E-06 173.801480378611 0.998152218230941 -95.2895821987582 
! Gamma         0.0543806592356301 38.2160788052929 0.0541172160221273 38.2157509998521 
! Port Impedance         50               0                50               0                
1.8212                         0.998132339003144 -95.3692757729681 3.2306486915529E-06 173.685662953187 3.23064869146184E-06 173.685662950488 0.998143884248279 -95.4025562596321 
! Gamma         0.0543866920875043 38.2244682275481 0.0541232130480075 38.2241403844795 
! Port Impedance         50               0                50               0                
1.8216                         0.998123833133191 -95.4833357054919 3.30395076468319E-06 173.569215890004 3.30395076464248E-06 173.569215889604 0.998135474019563 -95.516138357763 
! Gamma         0.0543927242780576 38.2328576491391 0.0541292094162748 38.2325297684469 
! Port Impedance         50               0                50               0                
1.822                          0.998115248423198 -95.5980167676973 3.3791739634148E-06 173.452132876039 3.37917396335284E-06 173.452132873423 0.998126986539612 -95.6303345646479 
! Gamma         0.0543987558075077 38.2412470700662 0.0541352051271454 38.2409191517547 
! Port Impedance         50               0                50               0                
1.8224                         0.998106583819452 -95.7133252351367 3.45637550570046E-06 173.334407498628 3.45637550526965E-06 173.334407491692 0.998118420786147 -95.7451510349967 
! Gamma         0.0544047866760719 38.2496364903294 0.0541412001808354 38.2493085344029 
! Port Impedance         50               0                50               0                
1.8228                         0.998097838250051 -95.8292674705207 3.53561451989827E-06 173.21603325212  3.5356145198013E-06 173.216033249436 0.998109775719432 -95.8605940081868 
! Gamma         0.0544108168839676 38.2580259099292 0.0541471945775609 38.2576979163919 
! Port Impedance         50               0                50               0                
1.8232                         0.998089010624512 -95.9458499252643 3.6169521185566E-06 173.097003557117 3.61695211836134E-06 173.097003552981 0.998101050281906 -95.9766698097492 
! Gamma         0.054416846431412 38.2664153288656 0.0541531883175377 38.2660872977217 
! Port Impedance         50               0                50               0                
1.8236                         0.99808009983338 -96.0630791410663 3.70045146867744E-06 172.977311723187 3.70045146859204E-06 172.977311720998 0.998092243397809 -96.0933848528856 
! Gamma         0.0544228753186223 38.2748047471389 0.0541591814009816 38.2744766783928 
! Port Impedance         50               0                50               0                
1.824                          0.998071104747819 -96.1809617515229 3.78617787125761E-06 172.856950980976 3.78617787131894E-06 172.856950979803 0.998083353972798 -96.2107456400185 
! Gamma         0.0544289035458153 38.2831941647493 0.0541651738281082 38.2828660584051 
! Port Impedance         50               0                50               0                
1.8244                         0.998062024219198 -96.299504483777 3.8741988400963E-06 172.735914465019 3.87419883997144E-06 172.735914461488 0.99807438089355 -96.3287587643757 
! Gamma         0.054434931113208 38.2915835816971 0.054171165599133 38.2912554377591 
! Port Impedance         50               0                50               0                
1.8248                         0.998052857078662 -96.4187141602036 3.96458418405664E-06 172.614195192585 3.9645841842942E-06 172.614195195062 0.998065323027357 -96.447430911608 
! Gamma         0.0544409580210169 38.2999729979824 0.0541771567142715 38.2996448164549 
! Port Impedance         50               0                50               0                
1.8252                         0.998043602136696 -96.538597700132 4.05740609624992E-06 172.491786113675 4.05740609633695E-06 172.491786114724 0.998056179221715 -96.5667688614428 
! Gamma         0.0544469842694588 38.3083624136055 0.054183147173739 38.3080341944926 
! Port Impedance         50               0                50               0                
1.8256                         0.998034258182671 -96.6591621216069 4.15273924212503E-06 172.368680061358 4.15273924214042E-06 172.368680059774 0.998046948303894 -96.6867794893737 
! Gamma         0.05445300985875 38.3167518285666 0.0541891369777506 38.3164235718727 
! Port Impedance         50               0                50               0                
1.826                          0.998024823984391 -96.7804145431875 4.25066085391896E-06 172.244869758967 4.25066085393201E-06 172.244869757676 0.998037629080503 -96.8074697683875 
! Gamma         0.0544590347891069 38.3251412428658 0.0541951261265214 38.3248129485951 
! Port Impedance         50               0                50               0                
1.8264                         0.998015298287611 -96.902362185788 4.35125082939552E-06 172.120347837169 4.35125082947845E-06 172.120347835728 0.998028220337043 -96.9288467707286 
! Gamma         0.0544650590607458 38.3335306565036 0.0542011146202664 38.3332023246602 
! Port Impedance         50               0                50               0                
1.8268                         0.998005679815559 -97.0250123745589 4.45459183394446E-06 171.995106823872 4.45459183390856E-06 171.995106822319 0.998018720837449 -97.0509176697036 
! Gamma         0.0544710826738826 38.3419200694799 0.0542071024592003 38.3415917000682 
! Port Impedance         50               0                50               0                
1.8272                         0.997995967268432 -97.1483725408102 4.56076940528562E-06 171.869139123132 4.56076940515665E-06 171.869139120471 0.998009129323613 -97.1736897415252 
! Gamma         0.0544771056287335 38.3503094817951 0.0542130896435379 38.3499810748193 
! Port Impedance         50               0                50               0                
1.8276                         0.997986159322888 -97.2724502239784 4.66987206692656E-06 171.742437047157 4.66987206682907E-06 171.742437044462 0.997999444514909 -97.2971703671973 
! Gamma         0.0544831279255141 38.3586988934494 0.0542190761734937 38.3583704489138 
! Port Impedance         50               0                50               0                
1.828                          0.997976254631523 -97.3972530736386 4.78199144118968E-06 171.61499277831  4.78199144138633E-06 171.614992777851 0.99798966510769 -97.421367034443 
! Gamma         0.0544891495644402 38.3670883044431 0.0542250620492823 38.3667598223517 
! Port Impedance         50               0                50               0                
1.8284                         0.997966251822326 -97.5227888515615 4.89722237245961E-06 171.486798400781 4.89722237275956E-06 171.486798403107 0.997979789774782 -97.5462873396752 
! Gamma         0.0544951705457274 38.3754777147762 0.054231047271118 38.3751491951334 
! Port Impedance         50               0                50               0                
1.8288                         0.997956149498132 -97.6490654338184 5.01566305073686E-06 171.357845878912 5.01566305074765E-06 171.357845877524 0.99796981716496 -97.6719389900127 
! Gamma         0.0545011908695913 38.383867124449  0.054237031839215 38.383538567259  
! Port Impedance         50               0                50               0                
1.8292                         0.997945946236052 -97.7760908129343 5.13741514325738E-06 171.228127050857 5.13741514289811E-06 171.228127045559 0.997959745902415 -97.7983298053412 
! Gamma         0.054507210536247 38.3922565334618 0.0542430157537875 38.3919279387288 
! Port Impedance         50               0                50               0                
1.8296                         0.997935640586889 -97.90387310009  5.26258393125462E-06 171.097633635958 5.26258393099629E-06 171.09763363128  0.997949574586197 -97.9254677204217 
! Gamma         0.0545132295459099 38.4006459418148 0.0542489990150494 38.400317309543  
! Port Impedance         50               0                50               0                
1.83                           0.997925231074537 -98.0324205273765 5.39127845364263E-06 170.966357236954 5.39127845367289E-06 170.966357237533 0.997939301789658 -98.0533607870477 
! Gamma         0.0545192478987951 38.4090353495082 0.0542549816232148 38.4087066797018 
! Port Impedance         50               0                50               0                
1.8304                         0.997914716195371 -98.1617414501009 5.52361165478425E-06 170.834289332295 5.52361165456106E-06 170.83428932756  0.997928926059861 -98.1820171762505 
! Gamma         0.0545252655951175 38.4174247565422 0.0542609635784972 38.4170960492054 
! Port Impedance         50               0                50               0                
1.8308                         0.997904094417611 -98.2918443491464 5.6597005395177E-06 170.7014212616   5.6597005395731E-06 170.7014212606   0.997918445916994 -98.3114451805575 
! Gamma         0.054531282635092 38.4258141629169 0.0542669448811105 38.4254854180541 
! Port Impedance         50               0                50               0                