! Touchstone file exported from HFSS 2023.1.0
!        File:           E:/1.Project/CoxailF/seventhree.aedt
!        Generated:      1:51:28 %x4E0B%x5348  5%x6708 25, 2023
!        Design:         Resonator_out12
!        Project:        seventhree
!        Setup:          Setup1
!        Solution:       Sweep
!
! Variables:
!        Hin1 = 26mm
!        Hout = 29mm
!        L12 = 14.8mm
!        L13 = 14.75mm
!        L23 = 6.95mm
!        L34 = 12.5mm
!        L45 = 8.8mm
!        L46 = 3.7mm
!        L56 = 8.2mm
!        L67 = 12.5mm
!        L78 = 7.8mm
!        L79 = 12.5mm
!        L89 = 15.3mm
!        Rin = 5mm
!        Rin2 = 4mm
!        Rout = 15mm
!        Rport = 1.15mm
!        Rport2 = 3mm
!        Rportin = 0.5mm
!        d = 3mm
!        d01 = 2.9mm
!        d02 = 3.53mm
!        d03 = 3.66mm
!        d04 = 3.74mm
!        d05 = 3.745mm
!        d06 = 3.74mm
!        d07 = 3.672mm
!        d08 = 3.52mm
!        d09 = 2.92mm
!        d12 = 18mm
!        d12x = 15.5mm
!        d12y = 25mm
!        d23 = 18mm
!        d34 = 30mm
!        hport = 10.4mm
!        hport2 = 10.4mm
!        lport = 12mm
!        lport2 = 1mm
!        lport_2 = 12mm
!        m = 2mm
!        w12 = 12mm
!        w13 = 10mm
!        w34 = 12mm
!        w46 = 8.5mm
!
# GHz S MA R 50.000000
! Terminal data exported
! Port[1] = 1
! Port[2] = 2
1.8                            0.998498167193604 -89.9433260413508 1.18751006886993E-06 179.175727573953 1.18751006886993E-06 179.175727573953 0.998489682308848 -90.0840146878241 
! Gamma         0.0540883629025318 37.7798575381182 0.0539357504819658 37.7796747490269 
! Port Impedance         50               0                50               0                
1.8004                         0.998492729924755 -90.0313640528588 1.2103736005817E-06 179.085618385428 1.21037360060603E-06 179.085618389401 0.99848419331622 -90.1724393244157 
! Gamma         0.0540944337169798 37.7882469986867 0.0539418010731399 37.7880641885219 
! Port Impedance         50               0                50               0                
1.8008                         0.998487251383752 -90.119782295881 1.23374440057909E-06 178.995116265573 1.23374440060555E-06 178.995116263799 0.998478662582662 -90.2612475439882 
! Gamma         0.0541005038582907 37.7966364585791 0.0539478509933182 37.7964536273431 
! Port Impedance         50               0                50               0                
1.8012                         0.998481731112697 -90.2085839724696 1.25763523559258E-06 178.904217886628 1.25763523561829E-06 178.904217886946 0.998473089644522 -90.3504425855072 
! Gamma         0.0541065733266884 37.8050259177956 0.0539539002427239 37.8048430654909 
! Port Impedance         50               0                50               0                
1.8016                         0.998476168647133 -90.2977723217253 1.28205923217225E-06 178.812919892953 1.28205923219735E-06 178.812919894714 0.998467474031504 -90.4400277254729 
! Gamma         0.0541126421223965 37.8134153763364 0.0539599488215802 37.8132325029654 
! Port Impedance         50               0                50               0                
1.802                          0.998470563515932 -90.3873506203432 1.30702988808835E-06 178.721218891611 1.30702988811448E-06 178.721218891352 0.998461815266558 -90.5300062784728 
! Gamma         0.0541187102456388 37.8218048342018 0.05396599673011 37.8216219397669 
! Port Impedance         50               0                50               0                
1.8024                         0.998464915241177 -90.477322183167 1.33256108381614E-06 178.62911144164  1.33256108382744E-06 178.629111444735 0.998456112865757 -90.6203815977443 
! Gamma         0.0541247776966387 37.8301942913919 0.0539720439685361 37.8300113758956 
! Port Impedance         50               0                50               0                
1.8028                         0.998459223338043 -90.5676903637543 1.35866709453056E-06 178.536594069673 1.3586670945657E-06 178.536594076328 0.998450366338176 -90.7111570757471 
! Gamma         0.0541308444756197 37.838583747907  0.0539780905370813 37.8384008113516 
! Port Impedance         50               0                50               0                
1.8032                         0.998453487314672 -90.6584585549519 1.38536260272531E-06 178.443663261283 1.38536260275097E-06 178.443663262126 0.998444575185769 -90.8023361447465 
! Gamma         0.054136910582805 37.8469732037474 0.053984136435968 37.8467902461353 
! Port Impedance         50               0                50               0                
1.8036                         0.998447706672049 -90.7496301894809 1.41266271092355E-06 178.350315450366 1.41266271094811E-06 178.350315452795 0.998438738903241 -90.8939222774064 
! Gamma         0.0541429760184178 37.8553626589132 0.0539901816654189 37.8551796802469 
! Port Impedance         50               0                50               0                
1.804                          0.998441880903876 -90.8412087405331 1.4405829550771E-06 178.256547041141 1.4405829550623E-06 178.256547043221 0.998432856977922 -90.9859189873938 
! Gamma         0.0541490407826811 37.8637521134046 0.0539962262256562 37.8635691136865 
! Port Impedance         50               0                50               0                
1.8044                         0.99843600949644 -90.9331977223783 1.46913931828197E-06 178.162354389218 1.46913931831926E-06 178.162354392102 0.99842692888963 -91.0783298299943 
! Gamma         0.0541551048758178 37.872141567222  0.0540022701169022 37.8719585464544 
! Port Impedance         50               0                50               0                
1.8048                         0.998430091928479 -91.025600690982 1.49834824526285E-06 178.067733810931 1.49834824523703E-06 178.067733810137 0.998420954110541 -91.1711584027383 
! Gamma         0.0541611682980506 37.8805310203654 0.0540083133393789 37.8803479785509 
! Port Impedance         50               0                50               0                
1.8052                         0.998424127671048 -91.1184212446351 1.52822665682693E-06 177.972681572842 1.52822665680201E-06 177.972681571062 0.998414932105051 -91.264408346039 
! Gamma         0.0541672310496024 37.8889204728353 0.0540143558933083 37.8887374099761 
! Port Impedance         50               0                50               0                
1.8056                         0.998418116187381 -91.2116630245951 1.55879196531632E-06 177.877193894693 1.55879196531383E-06 177.877193897143 0.998408862329631 -91.3580833438425 
! Gamma         0.0541732931306954 37.8973099246316 0.0540203977789123 37.8971268407303 
! Port Impedance         50               0                50               0                
1.806                          0.998412056932744 -91.3053297157389 1.59006209055596E-06 177.781266963973 1.59006209058139E-06 177.781266965215 0.998402744232689 -91.452187124289 
! Gamma         0.0541793545415523 37.9056993757548 0.0540264389964126 37.9055162708136 
! Port Impedance         50               0                50               0                
1.8064                         0.998405949354296 -91.3994250472278 1.62205547603958E-06 177.684896911152 1.62205547607952E-06 177.684896911447 0.99839657725442 -91.5467234603875 
! Gamma         0.0541854152823953 37.914088826205  0.0540324795460308 37.9139057002264 
! Port Impedance         50               0                50               0                
1.8068                         0.998399792890937 -91.4939527931851 1.65479110603945E-06 177.588079821828 1.65479110601114E-06 177.588079822952 0.998390360826656 -91.6416961707016 
! Gamma         0.0541914753534464 37.9224782759825 0.0540385194279884 37.9222951289689 
! Port Impedance         50               0                50               0                
1.8072                         0.99839358697316 -91.5889167733859 1.68828852300152E-06 177.490811739447 1.68828852302789E-06 177.490811739945 0.998384094372716 -91.7371091200491 
! Gamma         0.0541975347549279 37.9308677250874 0.0540445586425067 37.9306845570411 
! Port Impedance         50               0                50               0                
1.8076                         0.998387331022892 -91.6843208539601 1.72256784604782E-06 177.393088651041 1.72256784601066E-06 177.393088648505 0.998377777307248 -91.8329662202148 
! Gamma         0.0542035934870616 37.9392571735199 0.054050597189807 37.9390739844435 
! Port Impedance         50               0                50               0                
1.808                          0.998381024453341 -91.7801689481086 1.75764978947087E-06 177.29490649868  1.75764978949735E-06 177.294906499164 0.998371409036066 -91.9292714306756 
! Gamma         0.0542096515500692 37.9476466212804 0.0540566350701103 37.9474634111762 
! Port Impedance         50               0                50               0                
1.8084                         0.998374666668831 -91.8764650168332 1.79355568261002E-06 177.196261174021 1.79355568263354E-06 177.196261176453 0.998364988955994 -92.0260287593403 
! Gamma         0.0542157089441725 37.9560360683691 0.0540626722836378 37.9558528372394 
! Port Impedance         50               0                50               0                
1.8088                         0.998368257064637 -91.9732130696795 1.8303074899243E-06 177.097148526608 1.83030748993829E-06 177.097148526416 0.998358516454691 -92.123242263303 
! Gamma         0.0542217656695931 37.9644255147861 0.0540687088306102 37.9642422626334 
! Port Impedance         50               0                50               0                
1.8092                         0.99836179502682 -92.0704171654953 1.86792783191616E-06 176.997564339521 1.86792783188808E-06 176.997564339897 0.998351990910487 -92.2209160496108 
! Gamma         0.0542278217265523 37.9728149605316 0.0540747447112482 37.9726316873583 
! Port Impedance         50               0                50               0                
1.8096                         0.998355279932051 -92.1680814132016 1.90644000688052E-06 176.897504354198 1.90644000685159E-06 176.897504354978 0.998345411692204 -92.3190542760461 
! Gamma         0.0542338771152715 37.981204405606  0.0540807799257726 37.9810211114145 
! Port Impedance         50               0                50               0                
1.81                           0.998348711147435 -92.2662099725803 1.94586801358101E-06 176.79696425694  1.94586801357791E-06 176.796964258561 0.998338778158981 -92.4176611519236 
! Gamma         0.0542399318359718 37.9895938500094 0.0540868144744038 37.989410534802  
! Port Impedance         50               0                50               0                
1.8104                         0.998342088030335 -92.3648070550753 1.98623657441886E-06 176.695939680435 1.98623657445906E-06 176.695939681102 0.99833208966009 -92.5167409389032 
! Gamma         0.0542459858888744 37.997983293742  0.0540928483573622 37.9977999575212 
! Port Impedance         50               0                50               0                
1.8108                         0.998335409928181 -92.4638769246104 2.02757115977218E-06 176.594426203702 2.0275711598011E-06 176.594426203162 0.998325345534751 -92.616297951818 
! Gamma         0.0542520392742001 38.0063727368042 0.054098881574868 38.0061893795723 
! Port Impedance         50               0                50               0                
1.8112                         0.998328676178288 -92.563423898422 2.06989801297347E-06 176.492419346011 2.06989801297176E-06 176.492419346779 0.998318545111943 -92.7163365595182 
! Gamma         0.0542580919921698 38.014762179196  0.0541049141271414 38.0145788009554 
! Port Impedance         50               0                50               0                
1.8116                         0.998321886107659 -92.6634523479082 2.11324417630463E-06 176.389914575048 2.11324417630287E-06 176.389914575803 0.998311687710203 -92.816861185732 
! Gamma         0.0542641440430042 38.0231516209177 0.0541109460144025 38.0229682216708 
! Port Impedance         50               0                50               0                
1.812                          0.998315039032793 -92.7639666994949 2.15763751814813E-06 176.286907301693 2.15763751812247E-06 176.286907300718 0.998304772637435 -92.917876309942 
! Gamma         0.0542701954269238 38.0315410619696 0.054116977236871 38.0313576417188 
! Port Impedance         50               0                50               0                
1.8124                         0.998308134259477 -92.8649714355182 2.203106760794E-06 176.183392874093 2.20310676079072E-06 176.183392875368 0.998297799190701 -93.0193864682804 
! Gamma         0.0542762461441492 38.0399305023518 0.0541230077947667 38.0397470610995 
! Port Impedance         50               0                50               0                
1.8128                         0.998301171082587 -92.9664710951243 2.2496815095716E-06 176.079366586308 2.24968150954641E-06 176.079366585185 0.998290766656018 -93.1213962544403 
! Gamma         0.0542822961949006 38.0483199420646 0.0541290376883094 38.0481364798132 
! Port Impedance         50               0                50               0                
1.8132                         0.998294148785871 -93.0684702751869 2.29739228292689E-06 175.974823667809 2.29739228292491E-06 175.974823668512 0.998283674308135 -93.2239103206049 
! Gamma         0.0542883455793983 38.0567093811082 0.0541350669177185 38.05652589786   
! Port Impedance         50               0                50               0                
1.8136                         0.99828706664174 -93.1709736312437 2.34627054360454E-06 175.869759290614 2.34627054363977E-06 175.869759293104 0.99827652141033 -93.3269333783966 
! Gamma         0.0542943942978624 38.0650988194829 0.0541410954832135 38.0649153152403 
! Port Impedance         50               0                50               0                
1.814                          0.998279923911041 -93.2739858784493 2.39634873117151E-06 175.7641685679   2.39634873115786E-06 175.764168567705 0.998269307214172 -93.4304701998425 
! Gamma         0.0543004423505128 38.0734882571887 0.0541471233850136 38.0733047319542 
! Port Impedance         50               0                50               0                
1.8144                         0.998272719842835 -93.3775117925497 2.44766029545535E-06 175.658046538776 2.44766029545806E-06 175.658046537944 0.998262030959304 -93.5345256183612 
! Gamma         0.0543064897375693 38.0818776942261 0.054153150623338 38.0816941480019 
! Port Impedance         50               0                50               0                
1.8148                         0.998265453674168 -93.4815562108741 2.50023973172879E-06 175.551388188464 2.5002397317699E-06 175.551388189031 0.998254691873204 -93.6391045297677 
! Gamma         0.0543125364592518 38.0902671305951 0.0541591771984058 38.0900835633837 
! Port Impedance         50               0                50               0                
1.8152                         0.998258124629828 -93.5861240333475 2.55412261674729E-06 175.444188434112 2.55412261674844E-06 175.444188433791 0.998247289170949 -93.7442118932998 
! Gamma         0.0543185825157799 38.0986565662961 0.0541652031104358 38.0984729780998 
! Port Impedance         50               0                50               0                
1.8156                         0.998250731922113 -93.6912202235238 2.60934564642103E-06 175.336442126319 2.60934564640669E-06 175.336442126293 0.998239822054971 -93.8498527326633 
! Gamma         0.0543246279073729 38.1070460013292 0.0541712283596469 38.1068623921504 
! Port Impedance         50               0                50               0                
1.816                          0.998243274750574 -93.7968498096389 2.66594667476759E-06 175.228144048646 2.66594667473942E-06 175.228144048439 0.998232289714802 -93.9560321371001 
! Gamma         0.0543306726342503 38.1154354356946 0.0541772529462578 38.1152518055357 
! Port Impedance         50               0                50               0                
1.8164                         0.998235752301769 -93.903017885686 2.72396475469995E-06 175.119288916422 2.72396475468799E-06 175.119288915789 0.998224691326825 -94.0627552624768 
! Gamma         0.0543367166966314 38.1238248693926 0.054183276870487 38.123641218256  
! Port Impedance         50               0                50               0                
1.8168                         0.998228163748999 -94.0097296125126 2.78344017993632E-06 175.009871375669 2.78344017992058E-06 175.009871375941 0.998217026054009 -94.1700273323953 
! Gamma         0.0543427600947352 38.1322143024234 0.0541893001325529 38.1320306303114 
! Port Impedance         50               0                50               0                
1.8172                         0.998220508252044 -94.1169902189388 2.84441452878286E-06 174.899886001607 2.84441452882448E-06 174.899886002124 0.99820929304564 -94.2778536393269 
! Gamma         0.0543488028287808 38.1406037347873 0.0541953227326739 38.1404200417023 
! Port Impedance         50               0                50               0                
1.8176                         0.998212784956895 -94.2248050029004 2.90693070968872E-06 174.789327297549 2.90693070970129E-06 174.789327298005 0.998201491437048 -94.3862395457684 
! Gamma         0.054354844898987 38.1489931664844 0.0542013446710683 38.1488094524287 
! Port Impedance         50               0                50               0                
1.818                          0.998204992995469 -94.3331793326132 2.97103300821326E-06 174.678189693094 2.97103300821394E-06 174.678189692953 0.998193620349326 -94.4951904854229 
! Gamma         0.0543608863055727 38.1573825975149 0.0542073659479539 38.157198862491  
! Port Impedance         50               0                50               0                
1.8184                         0.998197131485329 -94.4421186477637 3.03676713631219E-06 174.566467545818 3.03676713630312E-06 174.566467544686 0.99818567888904 -94.6047119644043 
! Gamma         0.0543669270487564 38.1657720278791 0.054213386563549 38.1655882718893 
! Port Impedance         50               0                50               0                
1.8188                         0.998189199529393 -94.5516284607226 3.10418028319751E-06 174.454155132477 3.1041802832219E-06 174.45415513348  0.998177666147939 -94.7148095624672 
! Gamma         0.0543729671287567 38.1741614575772 0.0542194065180711 38.1739776806238 
! Port Impedance         50               0                50               0                
1.8192                         0.998181196215629 -94.6617143577839 3.17332116835345E-06 174.341246661943 3.1733211683409E-06 174.341246661517 0.998169581202647 -94.8254889342613 
! Gamma         0.0543790065457919 38.1825508866094 0.0542254258117382 38.1823670886949 
! Port Impedance         50               0                50               0                
1.8196                         0.998173120616756 -94.7723820004308 3.24424009642918E-06 174.22773625643  3.24424009646176E-06 174.227736255961 0.998161423114362 -94.9367558106136 
! Gamma         0.0543850453000805 38.1909403149759 0.0542314444447677 38.1907564961027 
! Port Impedance         50               0                50               0                
1.82                           0.998164971789928 -94.8836371266269 3.31698901484283E-06 174.113617961334 3.31698901482569E-06 174.113617961692 0.998153190928529 -95.0486159998354 
! Gamma         0.0543910833918405 38.199329742677  0.0542374624173773 38.1991459028473 
! Port Impedance         50               0                50               0                
1.8204                         0.998156748776409 -94.9954855521349 3.39162157285013E-06 173.998885744624 3.39162157286109E-06 173.998885745279 0.998144883674525 -95.1610753890585 
! Gamma         0.05439712082129 38.2077191697129 0.0542434797297841 38.2075353089291 
! Port Impedance         50               0                50               0                
1.8208                         0.998148450601251 -95.1079331718638 3.46819318375786E-06 173.883533487404 3.46819318375014E-06 173.883533486268 0.998136500365322 -95.2741399455983 
! Gamma         0.0544031575886469 38.2161085960838 0.0542494963822056 38.2159247143483 
! Port Impedance         50               0                50               0                
1.8212                         0.99814007627295 -95.2209859612437 3.54676108917058E-06 173.767554988059 3.5467610891439E-06 173.767554987522 0.998128039997151 -95.3878157183462 
! Gamma         0.0544091936941291 38.2244980217899 0.0542555123748588 38.2243141191051 
! Port Impedance         50               0                50               0                
1.8216                         0.998131624783105 -95.33464997763  3.62738442587689E-06 173.650943961638 3.62738442583099E-06 173.650943961677 0.998119501549143 -95.5021088391916 
! Gamma         0.0544152291379541 38.2328874468314 0.0542615277079606 38.2327035231996 
! Port Impedance         50               0                50               0                
1.822                          0.998123095106061 -95.448931361738 3.710124295662E-06 173.533694035802 3.71012429561936E-06 173.533694035373 0.998110883982984 -95.6170255244741 
! Gamma         0.0544212639203396 38.2412768712086 0.0542675423817281 38.2410929266321 
! Port Impedance         50               0                50               0                
1.8224                         0.998114486198548 -95.5638363391081 3.79504383750633E-06 173.415798747551 3.79504383747522E-06 173.415798747612 0.998102186242541 -95.7325720764667 
! Gamma         0.0544272980415031 38.2496662949217 0.0542735563963779 38.2494823294029 
! Port Impedance         50               0                50               0                
1.8228                         0.998105796999307 -95.6793712216021 3.88220830328237E-06 173.297251548679 3.88220830330111E-06 173.297251550187 0.998093407253488 -95.8487548848908 
! Gamma         0.0544333315016617 38.2580557179708 0.0542795697521268 38.2578717315122 
! Port Impedance         50               0                50               0                
1.8232                         0.998097026428711 -95.7955424089326 3.97168513601289E-06 173.178045797653 3.9716851359843E-06 173.178045797381 0.998084545922923 -95.9655804284638 
! Gamma         0.0544393643010329 38.2664451403563 0.0542855824491912 38.2662611329601 
! Port Impedance         50               0                50               0                
1.8236                         0.99808817338837 -95.9123563902244 4.06354405149297E-06 173.058174757409 4.06354405148553E-06 173.05817475827  0.998075601138969 -96.0830552764809 
! Gamma         0.0544453964398336 38.2748345620783 0.0542915944877875 38.2746505337468 
! Port Impedance         50               0                50               0                
1.824                          0.998079236760733 -96.029819745611 4.15785712358309E-06 172.937631600381 4.15785712354288E-06 172.937631599669 0.998066571770374 -96.2011860904299 
! Gamma         0.0544514279182808 38.283223983137  0.0542976058681321 38.2830399338727 
! Port Impedance         50               0                50               0                
1.8244                         0.998070215408677 -96.1479391478656 4.25469887243373E-06 172.816409399356 4.25469887241353E-06 172.816409399847 0.998057456666094 -96.3199796256425 
! Gamma         0.0544574587365913 38.2916134035327 0.054303616590441 38.2914293333379 
! Port Impedance         50               0                50               0                
1.8248                         0.998061108175082 -96.2667213640676 4.35414635684687E-06 172.694501131064 4.35414635682101E-06 172.694501130506 0.998048254654866 -96.4394427329809 
! Gamma         0.054463488894982 38.3000028232656 0.0543096266549305 38.2998187321426 
! Port Impedance         50               0                50               0                
1.8252                         0.998051913882402 -96.3861732573064 4.45627927020672E-06 172.571899672217 4.45627927017582E-06 172.571899672165 0.998038964544776 -96.5595823605621 
! Gamma         0.0544695183936694 38.3083922423359 0.0543156360618164 38.3082081302871 
! Port Impedance         50               0                50               0                
1.8256                         0.998042631332218 -96.5063017884221 4.56118004046486E-06 172.448597797227 4.56118004041109E-06 172.448597796345 0.998029585122805 -96.6804055555199 
! Gamma         0.05447554723287 38.3167816607439 0.0543216448113145 38.3165975277716 
! Port Impedance         50               0                50               0                
1.826                          0.998033259304786 -96.6271140177856 4.66893393424274E-06 172.324588176812 4.66893393423453E-06 172.324588176118 0.998020115154375 -96.8019194658058 
! Gamma         0.0544815754128002 38.3251710784896 0.0543276529036405 38.3249869245962 
! Port Impedance         50               0                50               0                
1.8264                         0.998023796558565 -96.7486171071181 4.77962916571126E-06 172.199863377675 4.77962916568648E-06 172.199863377062 0.998010553382877 -96.9241313420301 
! Gamma         0.0544876029336762 38.3335604955734 0.05433366033901 38.3333763207613 
! Port Impedance         50               0                50               0                
1.8268                         0.998014241829742 -96.8708183213511 4.89335700910135E-06 172.074415857382 4.89335700910026E-06 172.074415857474 0.998000898529185 -97.0470485393448 
! Gamma         0.0544936297957142 38.3419499119955 0.0543396671176384 38.3417657162669 
! Port Impedance         50               0                50               0                
1.8272                         0.998004593831739 -96.9937250305292 5.01021191720332E-06 171.948237967058 5.01021191717414E-06 171.948237966828 0.997991149291162 -97.1706785193678 
! Gamma         0.0544996559991301 38.3503393277561 0.0543456732397412 38.3501551111134 
! Port Impedance         50               0                50               0                
1.8276                         0.997994851254707 -97.1173447117544 5.13029164370581E-06 171.821321943598 5.13029164373063E-06 171.82132194292  0.997981304343153 -97.2950288521505 
! Gamma         0.05450568154414 38.3587287428554 0.0543516787055335 38.358544505301  
! Port Impedance         50               0                50               0                
1.828                          0.997985012765008 -97.2416849511753 5.25369737184777E-06 171.693659911104 5.25369737180152E-06 171.693659910943 0.997971362335457 -97.4201072181906 
! Gamma         0.0545117064309595 38.3671181572937 0.0543576835152305 38.3669338988298 
! Port Impedance         50               0                50               0                
1.8284                         0.997975077004683 -97.3667534460221 5.38053384731826E-06 171.565243879268 5.38053384729535E-06 171.565243879749 0.997961321893795 -97.54592141049  
! Gamma         0.0545177306598043 38.375507571071  0.0543636876690471 38.3753232917001 
! Port Impedance         50               0                50               0                
1.8288                         0.997965042590905 -97.4925580066872 5.51090951827686E-06 171.436065739151 5.51090951823394E-06 171.436065738746 0.99795118161876 -97.6724793366602 
! Gamma         0.0545237542308901 38.3838969841878 0.0543696911671982 38.3837126839121 
! Port Impedance         50               0                50               0                
1.8292                         0.997954908115421 -97.6191065588539 5.64493668014759E-06 171.306117263495 5.64493668014759E-06 171.306117263495 0.997940940085249 -97.7997890210751 
! Gamma         0.0545297771444321 38.3922863966441 0.0543756940098986 38.392102075466  
! Port Impedance         50               0                50               0                
1.8296                         0.997944672143973 -97.7464071456742 5.78273162737251E-06 171.175390100178 5.78273162737376E-06 171.175390100099 0.997930595841884 -97.927858607074 
! Gamma         0.0545357994006457 38.4006758084402 0.0543816961973629 38.4004914663621 
! Port Impedance         50               0                50               0                
1.83                           0.997934333215705 -97.8744679299979 5.92441481168353E-06 171.043875775591 5.92441481165268E-06 171.043875775465 0.997920147410415 -98.0566963592155 
! Gamma         0.0545418209997461 38.4090652195764 0.0543876977298057 38.4088808566005 
! Port Impedance         50               0                50               0                
1.8304                         0.99792388984256 -98.0032971966512 6.07011100678169E-06 170.911565686374 6.07011100676107E-06 170.911565685641 0.99790959328511 -98.1863106655828 
! Gamma         0.0545478419419483 38.4174546300527 0.0543936986074412 38.4172702461815 
! Port Impedance         50               0                50               0                
1.8308                         0.997913340508652 -98.1329033547717 6.21994948106052E-06 170.778451102766 6.21994948103082E-06 170.778451102569 0.997898931932125 -98.3167100401443 
! Gamma         0.0545538622274673 38.4258440398695 0.0543996988304839 38.4256596351052 
! Port Impedance         50               0                50               0                