! Touchstone file exported from HFSS 2023.1.0
!        File:           E:/1.Project/CoxailF/seventhree.aedt
!        Generated:      2:35:23 %x4E0B%x5348  5%x6708 25, 2023
!        Design:         Resonator_out13
!        Project:        seventhree
!        Setup:          Setup1
!        Solution:       Sweep
!
! Variables:
!        Hin1 = 26mm
!        Hout = 29mm
!        L12 = 14.8mm
!        L13 = 14.75mm
!        L23 = 6.95mm
!        L34 = 12.5mm
!        L45 = 8.6mm
!        L46 = 3.8mm
!        L56 = 8.2mm
!        L67 = 12.5mm
!        L78 = 7.8mm
!        L79 = 13.5mm
!        L89 = 15.3mm
!        Rin = 5mm
!        Rin2 = 4mm
!        Rout = 15mm
!        Rport = 1.15mm
!        Rport2 = 3mm
!        Rportin = 0.5mm
!        d = 3mm
!        d01 = 2.9mm
!        d02 = 3.53mm
!        d03 = 3.66mm
!        d04 = 3.72mm
!        d05 = 3.73mm
!        d06 = 3.74mm
!        d07 = 3.672mm
!        d08 = 3.55mm
!        d09 = 2.92mm
!        d12 = 18mm
!        d12x = 15.5mm
!        d12y = 25mm
!        d23 = 18mm
!        d34 = 30mm
!        hport = 10.4mm
!        hport2 = 10.4mm
!        lport = 12mm
!        lport2 = 1mm
!        lport_2 = 12mm
!        m = 2mm
!        w12 = 12mm
!        w13 = 10mm
!        w34 = 12mm
!        w46 = 8.5mm
!
# GHz S MA R 50.000000
! Terminal data exported
! Port[1] = 1
! Port[2] = 2
1.8                            0.998493482037618 -90.1473343785133 1.25238740652303E-06 178.96089212725  1.25238740652303E-06 178.96089212725  0.998473142973375 -90.3078948322755 
! Gamma         0.0539307039158974 37.7796465618459 0.0539689014234668 37.77972285229   
! Port Impedance         50               0                50               0                
1.8004                         0.998487994732384 -90.2358093769832 1.27652878523381E-06 178.870101079445 1.27652878520356E-06 178.870101078313 0.998467533452873 -90.3972334850429 
! Gamma         0.0539367514325082 37.7880359976209 0.0539749573023819 37.7881122975953 
! Port Impedance         50               0                50               0                
1.8008                         0.998482465640186 -90.3246680387721 1.30120635837036E-06 178.778911006931 1.30120635832244E-06 178.778911004034 0.998461880748199 -90.4869643467253 
! Gamma         0.0539427982783786 37.7964254327226 0.0539810125097852 37.7965017422261 
! Port Impedance         50               0                50               0                
1.8012                         0.99847689429619 -90.4139136044897 1.32643363454566E-06 178.68731851715  1.32643363451475E-06 178.687318517119 0.998456184373365 -90.5770907674376 
! Gamma         0.0539488444537317 37.8048148671513 0.0539870670458999 37.8048911861827 
! Port Impedance         50               0                50               0                
1.8016                         0.99847128022889 -90.5035493523402 1.3522245037378E-06 178.595320174907 1.35222450369511E-06 178.595320173679 0.99845044383532 -90.6676161366251 
! Gamma         0.0539548899587907 37.8132043009072 0.0539931209109491 37.8132806294653 
! Port Impedance         50               0                50               0                
1.802                          0.998465622959989 -90.593578598677 1.37859324886367E-06 178.502912507232 1.37859324878992E-06 178.502912505859 0.998444658633823 -90.7585438836514 
! Gamma         0.0539609347937785 37.8215937339904 0.0539991741051559 37.8216700720741 
! Port Impedance         50               0                50               0                
1.8024                         0.998459922004282 -90.684004698567 1.40555455830337E-06 178.410091997628 1.40555455822421E-06 178.410091994868 0.998438828261318 -90.8498774783965 
! Gamma         0.0539669789589178 37.8299831664013 0.0540052266287431 37.8300595140093 
! Port Impedance         50               0                50               0                
1.8028                         0.998454176869531 -90.7748310463655 1.43312353859005E-06 178.316855089313 1.43312353856012E-06 178.316855087527 0.9984329522028  -90.941620431866 
! Gamma         0.0539730224544315 37.8383725981401 0.0540112784819336 37.8384489552712 
! Port Impedance         50               0                50               0                
1.8032                         0.998448387056345 -90.866061076301 1.46131572776173E-06 178.223198181753 1.46131572772444E-06 178.223198181339 0.998427029935682 -91.0337762968113 
! Gamma         0.053979065280542 37.8467620292069 0.0540173296649499 37.84683839586   
! Port Impedance         50               0                50               0                
1.8036                         0.998442552058044 -90.9576982630711 1.49014710873641E-06 178.129117636748 1.49014710869945E-06 178.129117635855 0.998421060929657 -91.1263486683615 
! Gamma         0.0539851074374719 37.855151459602  0.0540233801780147 37.855227835776  
! Port Impedance         50               0                50               0                
1.804                          0.998436671360538 -91.0497461224486 1.5196341237094E-06 178.034609768354 1.51963412366651E-06 178.034609766991 0.998415044646558 -91.2193411846667 
! Gamma         0.0539911489254434 37.8635408893256 0.0540294300213503 37.8636172750192 
! Port Impedance         50               0                50               0                
1.8044                         0.998430744442186 -91.1422082119   1.54979368863038E-06 177.93967084544  1.54979368855437E-06 177.939670845572 0.998408980540217 -91.3127575275535 
! Gamma         0.0539971897446788 37.871930318378  0.054035479195179 37.8720067135901 
! Port Impedance         50               0                50               0                
1.8048                         0.998424770773668 -91.2350881312132 1.5806432083267E-06 177.844297096808 1.58064320830185E-06 177.844297096314 0.998402868056316 -91.4066014231923 
! Gamma         0.0540032298954002 37.8803197467594 0.0540415276997229 37.8803961514887 
! Port Impedance         50               0                50               0                
1.8052                         0.998418749817841 -91.3283895231392 1.6122005923252E-06 177.748484700568 1.61220059226919E-06 177.748484699472 0.998396706632244 -91.5008766427771 
! Gamma         0.0540092693778294 37.8887091744699 0.0540475755352042 37.8887855887153 
! Port Impedance         50               0                50               0                
1.8056                         0.998412681029596 -91.4221160740435 1.644484270836E-06 177.652229793803 1.64448427082392E-06 177.65222979323  0.998390495696935 -91.5955870032187 
! Gamma         0.0540153081921883 37.8970986015099 0.0540536227018446 37.8971750252702 
! Port Impedance         50               0                50               0                
1.806                          0.998406563855719 -91.5162715145707 1.67751321179112E-06 177.555528465191 1.67751321176085E-06 177.555528463836 0.998384234670722 -91.6907363678499 
! Gamma         0.0540213463386988 37.9054880278795 0.054059669199866 37.9055644611536 
! Port Impedance         50               0                50               0                
1.8064                         0.998400397734739 -91.6108596203218 1.71130693804276E-06 177.45837675173  1.71130693802442E-06 177.458376751058 0.998377922965173 -91.7863286471443 
! Gamma         0.0540273838175822 37.913877453579  0.0540657150294902 37.9139538963656 
! Port Impedance         50               0                50               0                
1.8068                         0.998394182096778 -91.7058842125426 1.74588554537745E-06 177.360770650815 1.74588554533505E-06 177.360770648956 0.998371559982927 -91.8823677994497 
! Gamma         0.0540334206290601 37.9222668786085 0.0540717601909386 37.9223433309065 
! Port Impedance         50               0                50               0                
1.8072                         0.998387916363396 -91.8013491588267 1.78126972136895E-06 177.262706100193 1.78126972133173E-06 177.262706099202 0.998365145117531 -91.9788578317333 
! Gamma         0.0540394567733539 37.9306563029684 0.0540778046844326 37.9307327647766 
! Port Impedance         50               0                50               0                
1.8076                         0.998381599947435 -91.8972583738303 1.81748076437522E-06 177.164178999598 1.81748076434908E-06 177.164178999761 0.998358677753272 -92.0758028003433 
! Gamma         0.0540454922506847 37.9390457266588 0.0540838485101936 37.939122197976  
! Port Impedance         50               0                50               0                
1.808                          0.998375232252855 -91.9936158200016 1.85454060386688E-06 177.065185189016 1.85454060383786E-06 177.065185186965 0.998352157264994 -92.1732068117835 
! Gamma         0.0540515270612736 37.9474351496799 0.0540898916684427 37.947511630505  
! Port Impedance         50               0                50               0                
1.8084                         0.998368812674575 -92.090425508323 1.89247182083931E-06 176.965720457983 1.89247182082157E-06 176.965720456969 0.998345583017934 -92.2710740235037 
! Gamma         0.0540575612053417 37.955824572032  0.0540959341594011 37.9559010623638 
! Port Impedance         50               0                50               0                
1.8088                         0.998362340598294 -92.187691499068 1.93129766961357E-06 176.865780550068 1.93129766954342E-06 176.865780549179 0.998338954367529 -92.3694086447046 
! Gamma         0.0540635946831098 37.9642139937153 0.0541019759832897 37.9642904935526 
! Port Impedance         50               0                50               0                
1.8092                         0.998355815400333 -92.2854179025722 1.97104209969526E-06 176.765361150533 1.97104209960987E-06 176.765361150677 0.998332270659237 -92.4682149371585 
! Gamma         0.0540696274947986 37.97260341473   0.0541080171403292 37.9726799240716 
! Port Impedance         50               0                50               0                
1.8096                         0.998349236447446 -92.3836088800195 2.01172977925949E-06 176.664457893555 2.01172977925641E-06 176.664457891867 0.998325531228345 -92.5674972160461 
! Gamma         0.0540756596406286 37.9809928350764 0.0541140576307404 37.9810693539212 
! Port Impedance         50               0                50               0                
1.81                           0.998342603096649 -92.4822686442421 2.05338611878349E-06 176.563066355584 2.05338611877097E-06 176.563066355287 0.998318735399774 -92.6672598508091 
! Gamma         0.0540816911208205 37.9893822547546 0.0541200974547439 37.9894587831014 
! Port Impedance         50               0                50               0                
1.8104                         0.998335914695032 -92.5814014605378 2.09603729587244E-06 176.461182061084 2.09603729585331E-06 176.461182060781 0.998311882487883 -92.76750726602  
! Gamma         0.0540877219355945 37.9977716737649 0.0541261366125601 37.9978482116125 
! Port Impedance         50               0                50               0                
1.8108                         0.998329170579573 -92.6810116475013 2.13971028092051E-06 176.358800478072 2.13971028086794E-06 176.358800477894 0.998304971796266 -92.8682439422685 
! Gamma         0.0540937520851709 38.0061610921075 0.0541321751044094 38.0062376394548 
! Port Impedance         50               0                50               0                
1.8112                         0.998322370076945 -92.7811035778724 2.18443286386006E-06 176.255917011818 2.18443286384108E-06 176.255917011437 0.998298002617541 -92.9694744170652 
! Gamma         0.0540997815697699 38.0145505097826 0.054138212930512 38.0146270666284 
! Port Impedance         50               0                50               0                
1.8116                         0.998315512503317 -92.8816816794009 2.23023368169908E-06 176.152527017287 2.23023368165532E-06 176.152527016183 0.998290974233142 -93.0712032857636 
! Gamma         0.0541058103896113 38.0229399267905 0.054144250091088 38.0230164931336 
! Port Impedance         50               0                50               0                
1.812                          0.998308597164159 -92.9827504357273 2.27714224702711E-06 176.048625783705 2.27714224700373E-06 176.048625782486 0.998283885913099 -93.1734352024997 
! Gamma         0.0541118385449151 38.0313293431313 0.0541502865863573 38.0314059189706 
! Port Impedance         50               0                50               0                
1.8124                         0.998301623354032 -93.0843143872823 2.32518897801147E-06 175.944208545008 2.32518897801219E-06 175.944208544762 0.998276736915817 -93.2761748811511 
! Gamma         0.054117866035901 38.0397187588054 0.0541563224165398 38.0397953441396 
! Port Impedance         50               0                50               0                
1.8128                         0.998294590356377 -93.1863781322028 2.37440522893161E-06 175.839270470679 2.37440522889121E-06 175.839270470689 0.99826952648785 -93.3794270963144 
! Gamma         0.0541238928627887 38.0481081738128 0.0541623575818554 38.0481847686409 
! Port Impedance         50               0                50               0                
1.8132                         0.998287497443304 -93.2889463272657 2.42482332223542E-06 175.733806668921 2.42482332223316E-06 175.733806669634 0.998262253863664 -93.4831966843023 
! Gamma         0.0541299190257977 38.0564975881539 0.0541683920825235 38.0565741924746 
! Port Impedance         50               0                50               0                
1.8136                         0.998280343875368 -93.3920236888417 2.47647658177742E-06 175.627812187926 2.47647658177484E-06 175.627812188704 0.998254918265403 -93.5874885441612 
! Gamma         0.0541359445251474 38.0648870018288 0.0541744259187637 38.064963615641  
! Port Impedance         50               0                50               0                
1.814                          0.998273128901346 -93.495614993866 2.52939936711558E-06 175.521282006788 2.52939936708237E-06 175.521282006575 0.998247518902642 -93.6923076387085 
! Gamma         0.0541419693610569 38.0732764148378 0.0541804590907954 38.0733530381403 
! Port Impedance         50               0                50               0                
1.8144                         0.998265851758009 -93.59972508083  2.58362710920908E-06 175.414211042961 2.58362710922153E-06 175.414211043285 0.998240054972144 -93.7976589955919 
! Gamma         0.0541479935337456 38.081665827181  0.0541864915988378 38.0817424599728 
! Port Impedance         50               0                50               0                
1.8148                         0.998258511669878 -93.704358850792 2.6391963476829E-06 175.306594146206 2.63919634767045E-06 175.306594145887 0.998232525657596 -93.903547708369 
! Gamma         0.0541540170434323 38.0900552388588 0.0541925234431101 38.0901318811386 
! Port Impedance         50               0                50               0                
1.8152                         0.998251107848994 -93.8095212684083 2.69614476901924E-06 175.198426098297 2.69614476900813E-06 175.19842609937  0.998224930129353 -94.0099789376099 
! Gamma         0.0541600398903361 38.0984446498714 0.0541985546238313 38.0985213016379 
! Port Impedance         50               0                50               0                
1.8156                         0.998243639494663 -93.9152173629852 2.75451124665216E-06 175.089701614772 2.7545112466308E-06 175.089701614949 0.998217267544171 -94.1169579120218 
! Gamma         0.0541660620746756 38.1068340602188 0.0542045851412203 38.1069107214711 
! Port Impedance         50               0                50               0                
1.816                          0.998236105793207 -94.0214522295518 2.81433588255375E-06 174.980415339431 2.81433588253382E-06 174.980415339254 0.998209537044928 -94.2244899295965 
! Gamma         0.0541720835966696 38.1152234699015 0.0542106149954958 38.1153001406383 
! Port Impedance         50               0                50               0                
1.8164                         0.998228505917703 -94.1282310299554 2.87566004992651E-06 174.87056184607  2.87566004996802E-06 174.870561846075 0.998201737760352 -94.3325803587824 
! Gamma         0.0541781044565365 38.1236128789195 0.0542166441868766 38.1236895591396 
! Port Impedance         50               0                50               0                
1.8168                         0.998220839027723 -94.2355589939784 2.9385264384167E-06 174.76013563618  2.93852643838315E-06 174.760135637406 0.998193868804723 -94.4412346396795 
! Gamma         0.0541841246544949 38.1320022872731 0.0542226727155812 38.1320789769755 
! Port Impedance         50               0                50               0                
1.8172                         0.998213104269055 -94.3434414204783 3.00297910014374E-06 174.649131138851 3.00297910013759E-06 174.649131140102 0.998185929277588 -94.5504582852603 
! Gamma         0.054190144190763 38.1403916949626 0.054228700581828 38.140468394146  
! Port Impedance         50               0                50               0                
1.8176                         0.998205300773436 -94.4518836785511 3.06906349821302E-06 174.537542708156 3.0690634982338E-06 174.537542708193 0.998177918263454 -94.6602568826155 
! Gamma         0.054196163065559 38.1487811019881 0.0542347277858353 38.1488578106514 
! Port Impedance         50               0                50               0                
1.818                          0.998197427658258 -94.5608912087186 3.13682655676563E-06 174.425364622429 3.13682655674684E-06 174.425364622012 0.998169834831483 -94.7706360942256 
! Gamma         0.0542021812791009 38.1571705083499 0.0542407543278214 38.1572472264919 
! Port Impedance         50               0                50               0                
1.8184                         0.998189484026283 -94.6704695241405 3.20631671305369E-06 174.312591081816 3.20631671303664E-06 174.312591082351 0.998161678035174 -94.8816016592601 
! Gamma         0.0542081988316067 38.1655599140482 0.0542467802080043 38.1656366416678 
! Port Impedance         50               0                50               0                
1.8188                         0.998181468965344 -94.780624211851 3.27758397166011E-06 174.199216211419 3.27758397164899E-06 174.199216210905 0.998153446912037 -94.9931593949027 
! Gamma         0.0542142157232942 38.1739493190832 0.0542528054266019 38.1740260561792 
! Port Impedance         50               0                50               0                
1.8192                         0.998173381548037 -94.8913609340218 3.35067996073975E-06 174.085234051563 3.35067996073129E-06 174.085234051791 0.998145140483266 -95.105315197706 
! Gamma         0.0542202319543811 38.1823387234551 0.0542588299838321 38.1824154700263 
! Port Impedance         50               0                50               0                
1.8196                         0.998165220831413 -95.0026854292512 3.42565799042062E-06 173.970638566637 3.42565799038695E-06 173.970638567468 0.998136757753392 -95.2180750449737 
! Gamma         0.054226247525085 38.1907281271642 0.0542648538799127 38.1908048832095 
! Port Impedance         50               0                50               0                
1.82                           0.998156985856654 -95.1146035138799 3.5025731137569E-06 173.855423635677 3.5025731137175E-06 173.855423636249 0.998128297709944 -95.331444996173 
! Gamma         0.0542322624356232 38.1991175302106 0.0542708771150612 38.1991942957288 
! Port Impedance         50               0                50               0                
1.8204                         0.998148675648746 -95.2271210833355 3.58148218986563E-06 173.739583054148 3.5814821898668E-06 173.739583053979 0.998119759323081 -95.4454311943768 
! Gamma         0.0542382766862133 38.2075069325946 0.054276899689495 38.2075837075846 
! Port Impedance         50               0                50               0                
1.8208                         0.998140289216142 -95.340244113504 3.66244394975539E-06 173.623110532685 3.66244394974904E-06 173.623110533572 0.998111141545232 -95.5600398677375 
! Gamma         0.0542442902770724 38.2158963343164 0.0542829216034317 38.215973118777  
! Port Impedance         50               0                50               0                
1.8212                         0.998131825550422 -95.4539786621319 3.74551906466549E-06 173.505999693841 3.74551906463788E-06 173.505999693683 0.998102443310721 -95.6752773309918 
! Gamma         0.0542503032084176 38.2242857353762 0.0542889428570884 38.2243625293063 
! Port Impedance         50               0                50               0                
1.8216                         0.998123283625933 -95.5683308702571 3.83077021715642E-06 173.388244074064 3.8307702171241E-06 173.388244073575 0.998093663535378 -95.7911499869984 
! Gamma         0.0542563154804658 38.2326751357743 0.0542949634506823 38.2327519391727 
! Port Impedance         50               0                50               0                
1.822                          0.998114662399431 -95.6833069636705 3.9182621752509E-06 173.269837117188 3.91826217524334E-06 173.269837117228 0.998084801116149 -95.9076643283093 
! Gamma         0.054262327093434 38.2410645355108 0.0543009833844304 38.2411413483764 
! Port Impedance         50               0                50               0                
1.8224                         0.998105960809711 -95.7989132544096 4.00806186929156E-06 173.150772175733 4.00806186928553E-06 173.150772176451 0.998075854930687 -96.0248269387752 
! Gamma         0.0542683380475388 38.249453934586  0.0543070026585496 38.2495307569176 
! Port Impedance         50               0                50               0                
1.8228                         0.998097177777224 -95.9151561422837 4.10023847214535E-06 173.031042513246 4.10023847216693E-06 173.031042513283 0.998066823836938 -96.1426444951862 
! Gamma         0.0542743483429969 38.2578433330001 0.0543130212732567 38.2579201647965 
! Port Impedance         50               0                50               0                
1.8232                         0.998088312203691 -96.0320421164324 4.19486348266639E-06 172.910641291105 4.19486348268626E-06 172.910641292139 0.998057706672719 -96.2611237689484 
! Gamma         0.0542803579800248 38.2662327307533 0.0543190392287684 38.2663095720134 
! Port Impedance         50               0                50               0                
1.8236                         0.998079362971698 -96.1495777569179 4.29201081242413E-06 172.789561580368 4.29201081240325E-06 172.789561581019 0.998048502255278 -96.3802716277975 
! Gamma         0.054286366958839 38.2746221278458 0.0543250565253013 38.2746989785684 
! Port Impedance         50               0                50               0                
1.824                          0.998070328944291 -96.2677697363516 4.39175687595245E-06 172.667796350047 4.39175687590518E-06 172.667796350353 0.998039209380843 -96.5000950375507 
! Gamma         0.0542923752796555 38.2830115242778 0.0543310731630717 38.2830883844619 
! Port Impedance         50               0                50               0                
1.8244                         0.998061208964553 -96.3866248215571 4.49418068511437E-06 172.545338470652 4.49418068509159E-06 172.545338470708 0.998029826824171 -96.6206010638977 
! Gamma         0.0542983829426905 38.2914009200496 0.0543370891422961 38.2914777896939 
! Port Impedance         50               0                50               0                
1.8248                         0.998052001855174 -96.5061498752694 4.59936394695024E-06 172.422180710459 4.59936394692884E-06 172.422180710378 0.998020353338067 -96.7417968742307 
! Gamma         0.0543043899481603 38.2997903151614 0.0543431044631907 38.2998671942648 
! Port Impedance         50               0                50               0                
1.8252                         0.998042706418009 -96.6263518578712 4.70739116570945E-06 172.298315733389 4.70739116567869E-06 172.298315733474 0.998010787652907 -96.8636897395173 
! Gamma         0.0543103962962805 38.3081797096134 0.0543491191259715 38.3082565981748 
! Port Impedance         50               0                50               0                
1.8256                         0.998033321433624 -96.7472378291685 4.8183497493212E-06 172.17373609806  4.81834974932374E-06 172.173736097842 0.998001128476139 -96.9862870362136 
! Gamma         0.0543164019872671 38.3165691034058 0.0543551331308545 38.316646001424  
! Port Impedance         50               0                50               0                
1.826                          0.99802384566083 -96.8688149502046 4.93233011986759E-06 172.048434256649 4.93233011985869E-06 172.048434256765 0.997991374491771 -97.1095962482224 
! Gamma         0.0543224070213356 38.3249584965389 0.0543611464780558 38.3250354040126 
! Port Impedance         50               0                50               0                
1.8264                         0.998014277836207 -96.9910904851161 5.04942582942083E-06 171.922402547542 5.04942582942932E-06 171.922402548068 0.997981524359852 -97.2336249688942 
! Gamma         0.0543284113987016 38.3333478890128 0.0543671591677909 38.333424805941  
! Port Impedance         50               0                50               0                
1.8268                         0.998004616673613 -97.1140718030291 5.16973367988423E-06 171.795633203801 5.16973367989951E-06 171.79563320437  0.997971576715932 -97.358380903076 
! Gamma         0.0543344151195806 38.3417372808277 0.0543731712002756 38.3418142072093 
! Port Impedance         50               0                50               0                
1.8272                         0.997994860863682 -97.2377663799994 5.29335384859023E-06 171.668118338387 5.29335384861289E-06 171.668118338957 0.997961530170511 -97.4838718692046 
! Gamma         0.0543404181841878 38.3501266719839 0.0543791825757255 38.3502036078177 
! Port Impedance         50               0                50               0                
1.8276                         0.997985009073305 -97.3621818009952 5.42039001899218E-06 171.53984995275  5.42039001903327E-06 171.53984995362  0.997951383308473 -97.6101058014503 
! Gamma         0.0543464205927385 38.3585160624816 0.0543851932943559 38.3585930077665 
! Port Impedance         50               0                50               0                
1.828                          0.997975059945107 -97.4873257619262 5.55094951685262E-06 171.410819927523 5.55094951684007E-06 171.410819927859 0.997941134688504 -97.7370907519084 
! Gamma         0.0543524223454477 38.3669054523211 0.0543912033563822 38.3669824070558 
! Port Impedance         50               0                50               0                
1.8284                         0.997965012096894 -97.613206071718 5.68514345223626E-06 171.281020024296 5.6851434522709E-06 171.281020025045 0.997930782842494 -97.8648348928428 
! Gamma         0.0543584234425305 38.3752948415024 0.0543972127620196 38.3753718056859 
! Port Impedance         50               0                50               0                
1.8288                         0.997954864121102 -97.7398306544348 5.82308686800917E-06 171.150441882163 5.82308686796796E-06 171.15044188282  0.997920326274927 -97.9933465189816 
! Gamma         0.0543644238842015 38.383684230026  0.0544032215114833 38.383761203657  
! Port Impedance         50               0                50               0                
1.8292                         0.99794461458422 -97.8672075514504 5.96489889398275E-06 171.019077014298 5.964898893973E-06 171.01907701536  0.997909763462245 -98.1226340498659 
! Gamma         0.0543704236706756 38.3920736178918 0.0544092296049882 38.3921506009693 
! Port Impedance         50               0                50               0                
1.8296                         0.997934262026204 -97.9953449236692 6.11070290848757E-06 170.886916808475 6.11070290845035E-06 170.886916808383 0.997899092852206 -98.2527060322546 
! Gamma         0.0543764228021674 38.4004630051003 0.0544152370427493 38.400539997623  
! Port Impedance         50               0                50               0                
1.83                           0.997923804959865 -98.1242510537996 6.2606267065774E-06 170.753952519436 6.26062670653964E-06 170.753952519808 0.997888312863211 -98.3835711425857 
! Gamma         0.0543824212788913 38.4088523916515 0.0544212438249813 38.4089293936184 
! Port Impedance         50               0                50               0                
1.8304                         0.99791324187026 -98.2539343486792 6.41480267544694E-06 170.620175273068 6.41480267546167E-06 170.620175273963 0.99787742188363 -98.5152381894953 
! Gamma         0.0543884191010617 38.4172417775458 0.0544272499518989 38.4173187889557 
! Port Impedance         50               0                50               0                
1.8308                         0.997902571214041 -98.3844033416557 6.57336797804001E-06 170.485576058104 6.57336797805337E-06 170.485576058226 0.99786641827109 -98.6477161163983 
! Gamma         0.0543944162688929 38.4256311627832 0.0544332554237167 38.425708183635  
! Port Impedance         50               0                50               0                