! Touchstone file exported from HFSS 2023.1.0
!        File:           E:/3.%x6211%x7684%x8BBA%x6587/%x65B0%x6D4B%x8BD5/CoaxialF93.aedt
!        Generated:      9:05:06 %x4E0B%x5348  5%x6708 27, 2023
!        Design:         S1
!        Project:        CoaxialF93
!        Setup:          Setup1
!        Solution:       Sweep
!
! Variables:
!        Hin1 = 26mm
!        Hout = 29mm
!        L12 = 14mm
!        L13 = 14.7mm
!        L23 = 8.7mm
!        L34 = 10.5mm
!        L45 = 10.5mm
!        L46 = 6mm
!        L56 = 8mm
!        L67 = 12.5mm
!        L78 = 9mm
!        L79 = 8mm
!        L89 = 15.5mm
!        Rin = 5mm
!        Rin2 = 4mm
!        Rout = 15mm
!        Rport = 1.15mm
!        Rport2 = 3mm
!        Rportin = 0.5mm
!        d = 3mm
!        d01 = 3mm
!        d02 = 3.9mm
!        d03 = 3.6mm
!        d04 = 3.65mm
!        d05 = 3.6mm
!        d06 = 3.6mm
!        d07 = 3.6mm
!        d08 = 3.5mm
!        d09 = 3mm
!        d12 = 18mm
!        d12x = 15.5mm
!        d12y = 25mm
!        d23 = 18mm
!        d34 = 30mm
!        hport = 10.4mm
!        hport2 = 10.4mm
!        lport = 12mm
!        lport2 = 1mm
!        lport_2 = 12mm
!        m = 2mm
!        w12 = 12mm
!        w13 = 10mm
!        w34 = 12mm
!        w46 = 8.5mm
!
# GHz S MA R 50.000000
! Terminal data exported
! Port[1] = 1
! Port[2] = 2
1.8                            0.998463031073313 -90.25859261151  9.03298197999759E-07 178.904979564881 9.03298197999758E-07 178.904979564881 0.998478699320581 -90.3183595246281 
! Gamma         0.0539762374273625 37.7797036493104 0.0538317540630537 37.7795418877791 
! Port Impedance         50               0                50               0                
1.8004                         0.998457012488808 -90.3500750185731 9.20520235435863E-07 178.812438722567 9.20520235426857E-07 178.81243872422  0.998473001498745 -90.4082168336162 
! Gamma         0.0539822912639129 37.7880930916755 0.0538377899564085 37.7879313118583 
! Port Impedance         50               0                50               0                
1.8008                         0.998450950127159 -90.4419747176692 9.38121233273623E-07 178.71948073256  9.38121233284973E-07 178.719480732403 0.998467262608435 -90.4984693754031 
! Gamma         0.0539883444290643 37.7964825333665 0.0538438251803062 37.7963207352656 
! Port Impedance         50               0                50               0                
1.8012                         0.998444843411404 -90.5342954167064 9.5611066154372E-07 178.626101960074 9.5611066153219E-07 178.626101960566 0.99846148216095 -90.5891205078343 
! Gamma         0.0539943969230399 37.8048719743838 0.0538498597349696 37.8047101580011 
! Port Impedance         50               0                50               0                
1.8016                         0.998438691755727 -90.6270408693002 9.74498255479819E-07 178.532298732363 9.74498255468057E-07 178.532298733264 0.998455659660686 -90.6801736277139 
! Gamma         0.0540004487460628 37.8132614147276 0.0538558936206212 37.813099580065  
! Port Impedance         50               0                50               0                
1.802                          0.998432494565301 -90.7202148754963 9.9329402393151E-07 178.438067332654 9.93294023928151E-07 178.438067333717 0.998449794605016 -90.7716321713762 
! Gamma         0.0540064998983562 37.821650854398  0.0538619268374833 37.8214890014576 
! Port Impedance         50               0                50               0                
1.8024                         0.998426251236107 -90.8138212825097 1.01250825772317E-06 178.34340399553  1.01250825773996E-06 178.343403996205 0.998443886484168 -90.8634996152669 
! Gamma         0.0540125503801428 37.8300402933953 0.0538679593857784 37.8298784221791 
! Port Impedance         50               0                50               0                
1.8028                         0.998419961154766 -90.9078639854769 1.03215153864628E-06 178.248304911655 1.03215153864033E-06 178.248304912042 0.998437934781099 -90.9557794765353 
! Gamma         0.0540186001916456 37.8384297317197 0.0538739912657285 37.8382678422297 
! Port Impedance         50               0                50               0                
1.8032                         0.99841362369836 -91.0023469282232 1.05223474838798E-06 178.152766225746 1.05223474837574E-06 178.152766226977 0.998431938971368 -91.0484753136363 
! Gamma         0.0540246493330871 37.8468191693715 0.0538800224775559 37.8466572616097 
! Port Impedance         50               0                50               0                
1.8036                         0.998407238234243 -91.0972741040449 1.07276907810409E-06 178.056784036075 1.07276907811453E-06 178.056784037789 0.998425898523007 -91.1415907269439 
! Gamma         0.0540306978046898 37.8552086063508 0.0538860530214823 37.8550466803192 
! Port Impedance         50               0                50               0                
1.804                          0.998400804119866 -91.1926495565079 1.09376603817538E-06 177.960354393119 1.09376603816231E-06 177.960354395292 0.998419812896387 -91.2351293593753 
! Gamma         0.0540367456066763 37.8635980426579 0.0538920828977298 37.8634360983586 
! Port Impedance         50               0                50               0                
1.8044                         0.998394320702575 -91.2884773802606 1.11523746821507E-06 177.863473298564 1.11523746821523E-06 177.863473298341 0.998413681544085 -91.3290948970266 
! Gamma         0.0540427927392687 37.871987478293  0.0538981121065198 37.871825515728  
! Port Impedance         50               0                50               0                
1.8048                         0.998387787319418 -91.3847617218647 1.13719554757396E-06 177.766136703161 1.13719554757692E-06 177.766136703094 0.998407503910742 -91.4234910698195 
! Gamma         0.0540488392026893 37.8803769132564 0.0539041406480741 37.8802149324276 
! Port Impedance         50               0                50               0                
1.8052                         0.998381203296951 -91.481506780641 1.15965280621832E-06 177.668340510032 1.15965280621315E-06 177.668340509228 0.998401279432927 -91.5183216521601 
! Gamma         0.0540548849971601 37.8887663475482 0.0539101685226142 37.8886043484577 
! Port Impedance         50               0                50               0                
1.8056                         0.998374567951024 -91.5787168095334 1.18262213576926E-06 177.570080569348 1.18262213576222E-06 177.570080570682 0.998395007538988 -91.6135904636101 
! Gamma         0.054060930122903 37.8971557811688 0.0539161957303612 37.8969937638184 
! Port Impedance         50               0                50               0                
1.806                          0.998367880586578 -91.6763961159899 1.20611680123979E-06 177.471352683202 1.20611680125367E-06 177.471352684069 0.998388687648909 -91.709301369569 
! Gamma         0.0540669745801399 37.9055452141182 0.0539222222715366 37.9053831785101 
! Port Impedance         50               0                50               0                
1.8064                         0.998361140497428 -91.7745490628609 1.23015045302691E-06 177.372152598917 1.23015045301828E-06 177.372152598692 0.998382319174156 -91.8054582819702 
! Gamma         0.0540730183690923 37.9139346463967 0.0539282481463613 37.9137725925329 
! Port Impedance         50               0                50               0                
1.8068                         0.998354346966047 -91.8731800693169 1.25473713915007E-06 177.272476009318 1.25473713913447E-06 177.272476010094 0.998375901517527 -91.9020651599891 
! Gamma         0.0540790614899819 37.9223240780046 0.0539342733550563 37.9221620058871 
! Port Impedance         50               0                50               0                
1.8072                         0.998347499263334 -91.9722936117837 1.2798913182974E-06 177.17231855534  1.27989131829452E-06 177.172318555267 0.998369434072994 -91.9991260107645 
! Gamma         0.0540851039430301 37.9307135089421 0.0539402978978426 37.9305514185728 
! Port Impedance         50               0                50               0                
1.8076                         0.998340596648394 -92.0718942248974 1.30562787312698E-06 177.071675822948 1.30562787312743E-06 177.071675822557 0.998362916225544 -92.096644890133 
! Gamma         0.0540911457284582 37.9391029392094 0.0539463217749407 37.9389408305904 
! Port Impedance         50               0                50               0                
1.808                          0.998333638368292 -92.1719865024788 1.33196212395302E-06 176.970543340782 1.33196212395616E-06 176.97054334066  0.998356347351012 -92.1946259033778 
! Gamma         0.0540971868464874 37.9474923688067 0.0539523449865715 37.94733024194   
! Port Impedance         50               0                50               0                
1.8084                         0.998326623657822 -92.2725750985281 1.35890984308982E-06 176.86891658149  1.35890984308666E-06 176.868916581609 0.998349726815918 -92.2930732059903 
! Gamma         0.0541032272973388 37.9558817977342 0.0539583675329553 37.9557196526218 
! Port Impedance         50               0                50               0                
1.8088                         0.998319551739251 -92.3736647282402 1.38648726969996E-06 176.766790959904 1.38648726970193E-06 176.766790960654 0.998343053977296 -92.3919910044476 
! Gamma         0.0541092670812333 37.9642712259922 0.0539643894143125 37.9641090626361 
! Port Impedance         50               0                50               0                
1.8092                         0.998312421822074 -92.4752601690404 1.41471112504282E-06 176.664161833105 1.41471112505104E-06 176.664161833674 0.998336328182519 -92.4913835570023 
! Gamma         0.0541153061983917 37.9726606535809 0.0539704106308635 37.9724984719831 
! Port Impedance         50               0                50               0                
1.8096                         0.99830523310275 -92.5773662616429 1.44359862839109E-06 176.56102449771  1.44359862839127E-06 176.561024497591 0.99832954876912 -92.5912551744894 
! Gamma         0.0541213446490348 37.9810500805005 0.0539764311828282 37.980887880663  
! Port Impedance         50               0                50               0                
1.81                           0.998297984764441 -92.6799879111302 1.47316751349599E-06 176.457374189095 1.473167513489E-06 176.457374189669 0.998322715064613 -92.6916102211469 
! Gamma         0.0541273824333832 37.9894395067512 0.0539824510704268 37.989277288676  
! Port Impedance         50               0                50               0                
1.8104                         0.998290675976735 -92.7831300880565 1.50343604563976E-06 176.353206083815 1.50343604564827E-06 176.353206084184 0.998315826386304 -92.7924531154525 
! Gamma         0.0541334195516573 37.9978289323333 0.053988470293879 37.9976666960224 
! Port Impedance         50               0                50               0                
1.8108                         0.998283305895371 -92.8867978295731 1.53442303934421E-06 176.248515291422 1.53442303933967E-06 176.248515292266 0.998308882041102 -92.8937883309764 
! Gamma         0.0541394560040774 38.006218357247  0.0539944888534049 38.0060561027024 
! Port Impedance         50               0                50               0                
1.8112                         0.998275873661958 -92.9909962405786 1.56614787663322E-06 176.143296863563 1.56614787662282E-06 176.14329686421  0.998301881325329 -92.9956203972498 
! Gamma         0.0541454917908639 38.0146077814924 0.0540005067492238 38.0144455087162 
! Port Impedance         50               0                50               0                
1.8116                         0.998268378403673 -93.0957304948935 1.59863052609365E-06 176.03754578259  1.59863052609279E-06 176.037545783028 0.998294823524514 -93.0979539006501 
! Gamma         0.0541515269122366 38.0229972050698 0.0540065239815555 38.0228349140639 
! Port Impedance         50               0                50               0                
1.812                          0.998260819232971 -93.2010058364588 1.63189156258012E-06 175.931256965787 1.63189156258418E-06 175.931256966827 0.998287707913197 -93.2007934853037 
! Gamma         0.0541575613684158 38.0313866279795 0.0540125405506192 38.031224318746  
! Port Impedance         50               0                50               0                
1.8124                         0.998253195247272 -93.3068275805623 1.66595218757823E-06 175.824425266147 1.66595218757812E-06 175.8244252662   0.998280533754719 -93.3041438540054 
! Gamma         0.0541635951596212 38.0397760502217 0.0540185564566344 38.0396137227625 
! Port Impedance         50               0                50               0                
1.8128                         0.998245505528653 -93.4132011150892 1.70083425046467E-06 175.717045466451 1.70083425046111E-06 175.717045466651 0.998273300301011 -93.4080097691559 
! Gamma         0.0541696282860726 38.0481654717965 0.0540245716998201 38.0480031261136 
! Port Impedance         50               0                50               0                
1.8132                         0.998237749143517 -93.5201319018014 1.73656027041879E-06 175.609112279725 1.73656027041819E-06 175.60911227998  0.998266006792375 -93.5123960537173 
! Gamma         0.0541756607479895 38.0565548927042 0.0540305862803955 38.0563925287997 
! Port Impedance         50               0                50               0                
1.8136                         0.998229925142269 -93.6276254776436 1.77315345927535E-06 175.500620352092 1.77315345927362E-06 175.500620352796 0.998258652457267 -93.6173075921877 
! Gamma         0.0541816925455915 38.0649443129451 0.0540366001985794 38.0647819308209 
! Port Impedance         50               0                50               0                
1.814                          0.998222032558978 -93.7356874560781 1.81063774511584E-06 175.391564255668 1.81063774510424E-06 175.391564255291 0.998251236512067 -93.7227493315935 
! Gamma         0.0541877236790981 38.0733337325193 0.0540426134545907 38.0731713321774 
! Port Impedance         50               0                50               0                
1.8144                         0.998214070411023 -93.8443235284493 1.84903779683641E-06 175.281938488465 1.84903779685102E-06 175.281938488893 0.998243758160848 -93.8287262825028 
! Gamma         0.0541937541487283 38.081723151427  0.0540486260486481 38.0815607328696 
! Port Impedance         50               0                50               0                
1.8148                         0.998206037698746 -93.9535394653777 1.88837904966805E-06 175.17173747841  1.8883790496619E-06 175.171737478346 0.998236216595141 -93.9352435200577 
! Gamma         0.0541997839547014 38.0901125696685 0.0540546379809701 38.0899501328974 
! Port Impedance         50               0                50               0                
1.8152                         0.998197933405075 -94.0633411181845 1.92868773138689E-06 175.06095557509  1.92868773140906E-06 175.0609555751   0.998228610993692 -94.0423061850266 
! Gamma         0.0542058130972364 38.0985019872441 0.0540606492517753 38.0983395322613 
! Port Impedance         50               0                50               0                
1.8156                         0.998189756495162 -94.1737344203486 1.96999089006192E-06 174.949587052428 1.96999089004844E-06 174.949587052671 0.998220940522212 -94.1499194848786 
! Gamma         0.0542118415765521 38.1068914041538 0.0540666598612819 38.1067289309615 
! Port Impedance         50               0                50               0                
1.816                          0.998181505915989 -94.2847253889951 2.01231642222125E-06 174.837626108644 2.01231642219747E-06 174.837626108082 0.99821320433313 -94.2580886948774 
! Gamma         0.0542178693928675 38.115280820398  0.0540726698097082 38.115118328998  
! Port Impedance         50               0                50               0                
1.8164                         0.998173180595977 -94.3963201264179 2.05569310256873E-06 174.725066857611 2.05569310256275E-06 174.725066858444 0.998205401565326 -94.366819159199 
! Gamma         0.0542238965464011 38.1236702359768 0.0540786790972722 38.1235077263712 
! Port Impedance         50               0                50               0                
1.8168                         0.998164779444584 -94.5085248216361 2.10015061470815E-06 174.611903337935 2.10015061470467E-06 174.611903338936 0.998197531343872 -94.4761162920699 
! Gamma         0.0542299230373714 38.1320596508906 0.054084687724192 38.1318971230814 
! Port Impedance         50               0                50               0                
1.8172                         0.998156301351884 -94.6213457519851 2.1457195828616E-06 174.498129504012 2.1457195828503E-06 174.498129504457 0.998189592779756 -94.5859855789294 
! Gamma         0.0542359488659969 38.1404490651394 0.0540906956906854 38.1402865191285 
! Port Impedance         50               0                50               0                
1.8176                         0.998147745188145 -94.7347892847448 2.19243160509223E-06 174.383739226466 2.19243160509785E-06 174.383739226692 0.99818158496961 -94.6964325776142 
! Gamma         0.0542419740324959 38.1488384787235 0.0540967029969702 38.1486759145131 
! Port Impedance         50               0                50               0                
1.818                          0.998139109803391 -94.8488618788033 2.24031928770796E-06 174.268726291674 2.2403192877168E-06 174.268726291905 0.998173506995421 -94.807462919568 
! Gamma         0.0542479985370866 38.1572278916432 0.0541027096432639 38.1570653092352 
! Port Impedance         50               0                50               0                
1.8184                         0.998130394026954 -94.9635700863607 2.28941628082121E-06 174.15308439759  2.28941628082891E-06 174.1530843981   0.998165357924244 -94.9190823110748 
! Gamma         0.054254022379987 38.1656173038987 0.0541087156297842 38.165454703295  
! Port Impedance         50               0                50               0                
1.8188                         0.998121596667008 -95.0789205546697 2.33975731570729E-06 174.036807158504 2.33975731571257E-06 174.036807158799 0.998157136807902 -95.0312965345175 
! Gamma         0.0542600455614151 38.1740067154901 0.0541147209567483 38.1738440966928 
! Port Impedance         50               0                50               0                
1.8192                         0.998112716510103 -95.194920027818 2.39137824307263E-06 173.919888094172 2.3913782430799E-06 173.91988809549  0.998148842682682 -95.144111449662 
! Gamma         0.0542660680815887 38.1823961264177 0.0541207256243735 38.1822334894288 
! Port Impedance         50               0                50               0                
1.8196                         0.998103752320674 -95.3115753485512 2.44431607338512E-06 173.802320637477 2.44431607337391E-06 173.802320637758 0.998140474569026 -95.2575329949683 
! Gamma         0.0542720899407255 38.1907855366817 0.0541267296328771 38.1906228815032 
! Port Impedance         50               0                50               0                
1.82                           0.998094702840544 -95.4288934601383 2.49860901840814E-06 173.684098125141 2.4986090183845E-06 173.684098125233 0.998132031471209 -95.3715671889272 
! Gamma         0.0542781111390431 38.1991749462824 0.0541327329824759 38.1990122729163 
! Port Impedance         50               0                50               0                
1.8204                         0.998085566788411 -95.5468814082803 2.5542965345069E-06 173.565213800763 2.55429653450981E-06 173.565213800845 0.998123512377014 -95.4862201314258 
! Gamma         0.054284131676759 38.2075643552199 0.054138735673387 38.2074016636682 
! Port Impedance         50               0                50               0                
1.8208                         0.99807634285932 -95.6655463430645 2.61141936775066E-06 173.445660812994 2.61141936775958E-06 173.445660813199 0.998114916257398 -95.6014980051406 
! Gamma         0.0542901515540905 38.2159537634945 0.0541447377058272 38.2157910537592 
! Port Impedance         50               0                50               0                
1.8212                         0.998067029724126 -95.784895520964 2.67001960061111E-06 173.325432209676 2.67001960060449E-06 173.32543220966  0.998106242066148 -95.7174070769598 
! Gamma         0.0542961707712548 38.2243431711064 0.054150739080013 38.2241804431894 
! Port Impedance         50               0                50               0                
1.8216                         0.998057626028934 -95.9049363068848 2.73014070074734E-06 173.204520941204 2.73014070075179E-06 173.204520941603 0.998097488739533 -95.8339536994348 
! Gamma         0.0543021893284691 38.2327325780558 0.0541567397961612 38.2325698319592 
! Port Impedance         50               0                50               0                
1.822                          0.99804813039453 -96.0256761762615 2.79182757158389E-06 173.082919855689 2.79182757157975E-06 173.082919855817 0.99808865519594 -95.9511443122626 
! Gamma         0.0543082072259503 38.2411219843429 0.054162739854488 38.2409592200687 
! Port Impedance         50               0                50               0                
1.8224                         0.998038541415793 -96.1471227172031 2.8551266050211E-06 172.960621697319 2.85512660500984E-06 172.960621697495 0.998079740335515 -96.0689854437988 
! Gamma         0.0543142244639154 38.2495113899679 0.0541687392552099 38.2493486075182 
! Port Impedance         50               0                50               0                
1.8228                         0.998028857661097 -96.2692836326904 2.92008573619628E-06 172.837619105033 2.9200857362019E-06 172.837619105748 0.998070743039776 -96.187483712603 
! Gamma         0.054320241042581 38.2579007949312 0.054174737998543 38.2577379943078 
! Port Impedance         50               0                50               0                
1.8232                         0.99801907767168 -96.392166742826 2.98675450062824E-06 172.71390461205  2.98675450063017E-06 172.71390461176  0.998061662171239 -96.3066458290163 
! Gamma         0.0543262569621639 38.2662901992328 0.0541807360847034 38.2661273804377 
! Port Impedance         50               0                50               0                
1.8236                         0.998009199961018 -96.5157799871391 3.05518409338182E-06 172.589470638231 3.05518409338225E-06 172.589470638168 0.998052496573009 -96.4264785967726 
! Gamma         0.0543322722228805 38.274679602873  0.0541867335139071 38.2745167659083 
! Port Impedance         50               0                50               0                
1.824                          0.99799922301416 -96.640131426946 3.1254274309812E-06 172.464309495992 3.12542743094918E-06 172.464309496135 0.998043245068388 -96.546988914644 
! Gamma         0.0543382868249473 38.2830690058519 0.0541927302863699 38.2829061507197 
! Port Impedance         50               0                50               0                
1.8244                         0.997989145287064 -96.7652292477685 3.1975392155897E-06 172.338413382225 3.1975392155632E-06 172.338413382532 0.998033906460451 -96.6681837781219 
! Gamma         0.0543443007685805 38.29145840817   0.0541987264023077 38.2912955348721 
! Port Impedance         50               0                50               0                
1.8248                         0.997978965205893 -96.891081761812 3.27157600215604E-06 172.211774378553 3.27157600214843E-06 172.211774379081 0.998024479531628 -96.7900702811331 
! Gamma         0.0543503140539962 38.2998478098273 0.0542047218619359 38.2996849183658 
! Port Impedance         50               0                50               0                
1.8252                         0.997968681166309 -97.0176974105035 3.34759626789107E-06 172.084384448658 3.34759626785651E-06 172.084384449052 0.998014963043259 -96.9126556177943 
! Gamma         0.0543563266814107 38.308237210824  0.0542107166654701 38.3080743012009 
! Port Impedance         50               0                50               0                
1.8256                         0.997958291532737 -97.145084767094 3.42566048497812E-06 171.956235435975 3.42566048497056E-06 171.956235436454 0.998005355735161 -97.0359470842029 
! Gamma         0.0543623386510397 38.3166266111605 0.0542167108131257 38.3164636833777 
! Port Impedance         50               0                50               0                
1.826                          0.997947794637608 -97.2732525393246 3.50583119620371E-06 171.827319060954 3.50583119621521E-06 171.827319061641 0.997995656325154 -97.1599520802679 
! Gamma         0.0543683499630991 38.3250160108368 0.054222704305118 38.3248530648964 
! Port Impedance         50               0                50               0                
1.8264                         0.997937188780589 -97.4022095721593 3.58817309372843E-06 171.697626920454 3.58817309373154E-06 171.697626920883 0.997985863508606 -97.2846781115803 
! Gamma         0.0543743606178045 38.3334054098533 0.054228697141662 38.3332424457573 
! Port Impedance         50               0                50               0                
1.8268                         0.997926472227775 -97.5319648505875 3.67275310108933E-06 171.567150483121 3.67275310109496E-06 171.567150483272 0.997975975957944 -97.4101327913238 
! Gamma         0.0543803706153717 38.3417948082101 0.0542346893229728 38.3416318259604 
! Port Impedance         50               0                50               0                
1.8272                         0.997915643210871 -97.6625275024957 3.7596404587591E-06 171.43588108745  3.75964045876454E-06 171.435881087977 0.997965992322165 -97.5363238422287 
! Gamma         0.0543863799560159 38.3501842059074 0.0542406808492654 38.3500212055061 
! Port Impedance         50               0                50               0                
1.8276                         0.997904699926344 -97.7939068016136 3.84890681337379E-06 171.30380994093  3.84890681337353E-06 171.303809941301 0.997955911226325 -97.6632590985672 
! Gamma         0.0543923886399526 38.3585736029455 0.0542466717207545 38.3584105843946 
! Port Impedance         50               0                50               0                
1.828                          0.997893640534551 -97.9261121705336 3.94062631040748E-06 171.170928114759 3.94062631042147E-06 171.170928114791 0.997945731271026 -97.7909465081943 
! Gamma         0.0543983966673971 38.3669629993246 0.0542526619376548 38.366799962626  
! Port Impedance         50               0                50               0                
1.8284                         0.99788246315884 -98.0591531838092 4.0348756913984E-06 171.037226543611 4.0348756913837E-06 171.037226543961 0.997935451031882 -97.9193941346328 
! Gamma         0.0544044040385643 38.3753523950449 0.0542586515001809 38.3751893402007 
! Port Impedance         50               0                50               0                
1.8288                         0.997871165884624 -98.1930395711323 4.13173439456565E-06 170.902696020968 4.13173439456761E-06 170.902696021423 0.997925069058973 -98.0486101592058 
! Gamma         0.0544104107536693 38.3837417901066 0.0542646404085472 38.3835787171187 
! Port Impedance         50               0                50               0                
1.8292                         0.997859746758432 -98.3277812205931 4.23128466037529E-06 170.767327198737 4.23128466036332E-06 170.767327199128 0.997914583876285 -98.178602883216 
! Gamma         0.054416416812927 38.3921311845099 0.054270628662968 38.3919680933804 
! Port Impedance         50               0                50               0                
1.8296                         0.997848203786921 -98.4633881820236 4.33361164133244E-06 170.631110580665 4.33361164133601E-06 170.631110580962 0.997903993981137 -98.3093807301745 
! Gamma         0.0544224222165522 38.4005205782551 0.0542766162636576 38.4003574689859 
! Port Impedance         50               0                50               0                
1.83                           0.997836534935871 -98.5998706704303 4.43880351657217E-06 170.49403652335  4.43880351657746E-06 170.494036523786 0.997893297843593 -98.4409522480798 
! Gamma         0.0544284269647594 38.4089099713424 0.05428260321083 38.4087468439355 
! Port Impedance         50               0                50               0                
1.8304                         0.997824738129138 -98.7372390695151 4.54695161145052E-06 170.356095231006 4.54695161145553E-06 170.356095231179 0.997882493905856 -98.5733261117474 
! Gamma         0.0544344310577632 38.4172993637719 0.0542885895046992 38.4171362182293 
! Port Impedance         50               0                50               0                
1.8308                         0.997812811247584 -98.8755039352907 4.6581505223156E-06 170.21727675265  4.6581505223306E-06 170.217276753159 0.997871580581648 -98.7065111251942 
! Gamma         0.054440434495778 38.4256887555439 0.0542945751454792 38.4255255918677 
! Port Impedance         50               0                50               0                