! Touchstone file exported from HFSS 2023.1.0
!        File:           E:/3.%x6211%x7684%x8BBA%x6587/%x65B0%x6D4B%x8BD5/CoaxialF93.aedt
!        Generated:      9:33:10 %x4E0B%x5348  5%x6708 26, 2023
!        Design:         S2
!        Project:        CoaxialF93
!        Setup:          Setup1
!        Solution:       Sweep
!
! Variables:
!        Hin1 = 26mm
!        Hout = 29mm
!        L12 = 14mm
!        L13 = 14.5mm
!        L23 = 9.2mm
!        L34 = 8mm
!        L45 = 10.8mm
!        L46 = 8mm
!        L56 = 8mm
!        L67 = 12mm
!        L78 = 7mm
!        L79 = 8mm
!        L89 = 15mm
!        Rin = 5mm
!        Rin2 = 4mm
!        Rout = 15mm
!        Rport = 1.15mm
!        Rport2 = 3mm
!        Rportin = 0.5mm
!        d = 3mm
!        d01 = 3mm
!        d02 = 3.7mm
!        d03 = 3.8mm
!        d04 = 3.65mm
!        d05 = 3.6mm
!        d06 = 3.6mm
!        d07 = 3.8mm
!        d08 = 3.5mm
!        d09 = 3mm
!        d12 = 18mm
!        d12x = 15.5mm
!        d12y = 25mm
!        d23 = 18mm
!        d34 = 30mm
!        hport = 10.4mm
!        hport2 = 10.4mm
!        lport = 12mm
!        lport2 = 1mm
!        lport_2 = 12mm
!        m = 2mm
!        w12 = 12mm
!        w13 = 10mm
!        w34 = 12mm
!        w46 = 8.5mm
!
# GHz S MA R 50.000000
! Terminal data exported
! Port[1] = 1
! Port[2] = 2
1.8                            0.998465400663659 -90.3319358033722 9.26384095722139E-07 178.808474254562 9.26384095722138E-07 178.808474254562 0.998470736336169 -90.4192593287999 
! Gamma         0.0539170646371975 37.7796265928685 0.0540126821660286 37.7797867002826 
! Port Impedance         50               0                50               0                
1.8004                         0.998459575017893 -90.4231730188575 9.44291399741098E-07 178.716087805433 9.44291399746186E-07 178.716087804307 0.998465152000591 -90.5089605997673 
! Gamma         0.0539231099566665 37.788016026256  0.0540187450658046 37.7881761532851 
! Port Impedance         50               0                50               0                
1.8008                         0.998453703052238 -90.5148227943443 9.62598292851993E-07 178.623287676791 9.62598292849785E-07 178.623287674559 0.998459525203026 -90.5990538911289 
! Gamma         0.0539291546055417 37.7964054589703 0.0540248072932271 37.7965656056125 
! Port Impedance         50               0                50               0                
1.8012                         0.998447784226526 -90.606888756947 9.8131490153442E-07 178.530070292783 9.81314901528409E-07 178.530070292226 0.99845385547405 -90.6895425115283 
! Gamma         0.0539351985840475 37.8047948910117 0.054030868848523 37.8049550572649 
! Port Impedance         50               0                50               0                
1.8016                         0.998441817992412 -90.6993745778586 1.00045163995518E-06 178.436432043145 1.00045163996459E-06 178.43643204316  0.998448142337576 -90.7804298077568 
! Gamma         0.0539412418924079 37.8131843223804 0.0540369297319193 37.8133445082426 
! Port Impedance         50               0                50               0                
1.802                          0.998435803793214 -90.7922839730368 1.0200192191071E-06 178.342369273373 1.02001921907815E-06 178.342369271558 0.998442385310744 -90.8717191653099 
! Gamma         0.053947284530847 37.8215737530766 0.0540429899436425 37.8217339585459 
! Port Impedance         50               0                50               0                
1.8024                         0.998429741063761 -90.8856207039038 1.04002865591945E-06 178.247878280962 1.04002865590732E-06 178.247878280072 0.998436583903794 -90.9634140089538 
! Gamma         0.0539533264995885 37.8299631831006 0.0540490494839191 37.8301234081749 
! Port Impedance         50               0                50               0                
1.8028                         0.998423629230232 -90.9793885780586 1.06049128327739E-06 178.152955321337 1.06049128329616E-06 178.152955321713 0.998430737619954 -91.055517803302 
! Gamma         0.0539593677988564 37.8383526124526 0.0540551083529755 37.8385128571299 
! Port Impedance         50               0                50               0                
1.8032                         0.998417467709991 -91.0735914500038 1.08141875989102E-06 178.057596608857 1.08141875989567E-06 178.057596609034 0.998424845955314 -91.1480340534015 
! Gamma         0.0539654084288741 37.8467420411328 0.0540611665510378 37.8469023054111 
! Port Impedance         50               0                50               0                
1.8036                         0.998411255911421 -91.168233221886 1.10282308062036E-06 177.96179830483  1.10282308064955E-06 177.961798304057 0.998418908398699 -91.2409663053309 
! Gamma         0.0539714483898651 37.8551314691414 0.054067224078332 37.8552917530187 
! Port Impedance         50               0                50               0                
1.804                          0.998404993233752 -91.2633178442505 1.12471658750081E-06 177.865556529222 1.12471658749088E-06 177.865556529691 0.998412924431544 -91.3343181468074 
! Gamma         0.0539774876820529 37.8635208964787 0.0540732809350838 37.8636811999529 
! Port Impedance         50               0                50               0                
1.8044                         0.998398679066889 -91.358849316811 1.14711198057948E-06 177.768867356481 1.14711198056373E-06 177.76886735613  0.998406893527764 -91.4280932078063 
! Gamma         0.0539835263056605 37.8719103231449 0.054079337121519 37.872070646214  
! Port Impedance         50               0                50               0                
1.8048                         0.99839231279123 -91.4548316892342 1.17002232953272E-06 177.671726807223 1.17002232955622E-06 177.671726806011 0.998400815153618 -91.5222951611908 
! Gamma         0.053989564260911 37.8802997491402 0.0540853926378631 37.8804600918022 
! Port Impedance         50               0                50               0                
1.8052                         0.998385893777482 -91.55126906194  1.19346108578443E-06 177.574130855753 1.19346108580185E-06 177.574130856098 0.998394688767575 -91.6169277233536 
! Gamma         0.0539956015480275 37.8886891744648 0.0540914474843413 37.8888495367177 
! Port Impedance         50               0                50               0                
1.8056                         0.998379421386481 -91.6481655869165 1.21744209460096E-06 177.476075431132 1.21744209460562E-06 177.476075429621 0.998388513820174 -91.7119946548698 
! Gamma         0.0540016381672327 37.897078599119  0.0540975016611787 37.8972389809607 
! Port Impedance         50               0                50               0                
1.806                          0.99837289496899 -91.7455254685524 1.24197960806797E-06 177.377556407479 1.2419796080715E-06 177.377556407187 0.998382289753885 -91.8074997611617 
! Gamma         0.0540076741187493 37.9054680231029 0.0541035551686005 37.9056284245315 
! Port Impedance         50               0                50               0                
1.8064                         0.998366313865512 -91.8433529644853 1.26708829826821E-06 177.278569609003 1.26708829826241E-06 177.278569609873 0.998376016002958 -91.9034468931764 
! Gamma         0.0540137094027999 37.9138574464169 0.0541096080068313 37.9140178674302 
! Port Impedance         50               0                50               0                
1.8068                         0.998359677406084 -91.9416523864663 1.29278327102205E-06 177.179110811018 1.29278327100155E-06 177.179110810395 0.998369691993285 -91.999839948075 
! Gamma         0.0540197440196068 37.9222468690611 0.0541156601760959 37.9224073096571 
! Port Impedance         50               0                50               0                
1.8072                         0.998352984910076 -92.040428101243 1.31908008012123E-06 177.079175730774 1.3190800801132E-06 177.079175732035 0.998363317142236 -92.0966828699353 
! Gamma         0.0540257779693924 37.9306362910358 0.0541217116766187 37.9307967512124 
! Port Impedance         50               0                50               0                
1.8076                         0.998346235685975 -92.1396845314594 1.34599474210572E-06 176.978760039095 1.34599474211742E-06 176.978760040239 0.998356890858519 -92.1939796504661 
! Gamma         0.0540318112523788 37.9390257123411 0.054127762508624 37.9391861920964 
! Port Impedance         50               0                50               0                
1.808                          0.998339429031177 -92.2394261565741 1.37354375151349E-06 176.877859348023 1.37354375151221E-06 176.877859347746 0.998350412542012 -92.2917343297366 
! Gamma         0.054037843868788 37.9474151329774 0.054133812672336 37.9475756323092 
! Port Impedance         50               0                50               0                
1.8084                         0.998332564231763 -92.3396575137971 1.40174409661991E-06 176.776469214317 1.40174409663472E-06 176.776469214352 0.998343881583605 -92.3899509969176 
! Gamma         0.0540438758188419 37.9558045529448 0.0541398621679787 37.9559650718511 
! Port Impedance         50               0                50               0                
1.8088                         0.998325640562274 -92.4403831990455 1.43061327600975E-06 176.674585140585 1.43061327601025E-06 176.674585141382 0.998337297365038 -92.488633791038 
! Gamma         0.0540499071027623 37.9641939722435 0.054145910995776 37.9643545107223 
! Port Impedance         50               0                50               0                
1.8092                         0.99831865728548 -92.5416078679187 1.46016931537053E-06 176.572202573587 1.46016931538311E-06 176.572202572965 0.99833065925873 -92.5877869017542 
! Gamma         0.0540559377207708 37.9725833908738 0.0541519591559513 37.972743948923  
! Port Impedance         50               0                50               0                
1.8096                         0.998311613652147 -92.6433362366939 1.4904307853757E-06 176.469316899207 1.49043078536386E-06 176.469316898282 0.998323966627609 -92.6874145701345 
! Gamma         0.054061967673089 37.980972808836  0.0541580066487284 37.9811333864535 
! Port Impedance         50               0                50               0                
1.81                           0.998304508900791 -92.7455730833408 1.52141681966153E-06 176.365923445504 1.52141681967173E-06 176.365923445403 0.998317218824935 -92.7875210894585 
! Gamma         0.0540679969599381 37.9893622261301 0.0541640534743304 37.9895228233139 
! Port Impedance         50               0                50               0                
1.8104                         0.998297342257432 -92.8483232485589 1.55314713405693E-06 176.262017482943 1.55314713404103E-06 176.262017483399 0.998310415194124 -92.8881108060311 
! Gamma         0.0540740255815394 37.9977516427565 0.0541700996329806 37.9979122595045 
! Port Impedance         50               0                50               0                
1.8108                         0.998290112935341 -92.9515916368347 1.58564204603862E-06 176.157594220457 1.58564204604309E-06 176.15759421986  0.998303555068561 -92.9891881200125 
! Gamma         0.054080053538114 38.0061410587153 0.054176145124902 38.0063016950254 
! Port Impedance         50               0                50               0                
1.8112                         0.998282820134781 -93.0553832175221 1.61892249516062E-06 176.052648803185 1.61892249513589E-06 176.052648802886 0.998296637771415 -93.0907574862631 
! Gamma         0.0540860808298829 38.0145304740069 0.0541821899503174 38.014691129877  
! Port Impedance         50               0                50               0                
1.8116                         0.998275463042738 -93.1597030259439 1.65301006418191E-06 175.947176315929 1.65301006420237E-06 175.947176316683 0.998289662615448 -93.1928234152054 
! Gamma         0.054092107457067 38.0229198886313 0.0541882341094495 38.0230805640595 
! Port Impedance         50               0                50               0                
1.812                          0.998268040832651 -93.2645561645179 1.68792700113214E-06 175.841171780587 1.68792700113889E-06 175.841171780603 0.998282628902818 -93.2953904737021 
! Gamma         0.054098133419887 38.0313093025889 0.0541942776025208 38.031469997573  
! Port Impedance         50               0                50               0                
1.8124                         0.99826055266413 -93.3699478039052 1.7236962417911E-06 175.734630151237 1.72369624180126E-06 175.734630151262 0.99827553592488 -93.3984632859508 
! Gamma         0.0541041587185634 38.0396987158799 0.0542003204297537 38.0398594304178 
! Port Impedance         50               0                50               0                
1.8128                         0.998252997682675 -93.475883184184 1.76034143356468E-06 175.627546318515 1.76034143356102E-06 175.627546318617 0.998268382961982 -93.5020465343965 
! Gamma         0.0541101833533167 38.0480881285044 0.0542063625913703 38.0482488625941 
! Port Impedance         50               0                50               0                
1.8132                         0.998245375019373 -93.5823676160468 1.79788695976856E-06 175.519915105838 1.7978869597456E-06 175.519915106108 0.998261169283254 -93.6061449606608 
! Gamma         0.0541162073243672 38.0564775404628 0.0542124040875928 38.056638294102  
! Port Impedance         50               0                50               0                
1.8136                         0.99823768379061 -93.6894064820247 1.8363579651888E-06 175.411731268974 1.83635796519106E-06 175.411731268765 0.998253894146396 -93.7107633664907 
! Gamma         0.0541222306319352 38.0648669517551 0.054218444918643 38.065027724942  
! Port Impedance         50               0                50               0                
1.814                          0.998229923097752 -93.7970052377361 1.87578038242434E-06 175.302989492563 1.87578038240745E-06 175.302989491783 0.998246556797461 -93.8159066147238 
! Gamma         0.0541282532762407 38.0732563623818 0.0542244850847426 38.0734171551141 
! Port Impedance         50               0                50               0                
1.8144                         0.998222092026834 -93.9051694131636 1.9161809592268E-06 175.193684391126 1.91618095923623E-06 175.193684392082 0.998239156470628 -93.9215796302745 
! Gamma         0.0541342752575036 38.0816457723429 0.0542305245861132 38.0818065846185 
! Port Impedance         50               0                50               0                
1.8148                         0.998214189648235 -94.0139046139574 1.95758728707919E-06 175.083810511658 1.95758728709435E-06 175.083810512408 0.998231692387976 -94.027787401138 
! Gamma         0.0541402965759438 38.0900351816386 0.0542365634229761 38.0901960134556 
! Port Impedance         50               0                50               0                
1.8152                         0.998206215016349 -94.123216522767 2.00002783063204E-06 174.973362324999 2.00002783064313E-06 174.973362324227 0.998224163759248 -94.1345349794146 
! Gamma         0.0541463172317809 38.0984245902693 0.0542426015955526 38.0985854416255 
! Port Impedance         50               0                50               0                
1.8156                         0.99819816716924 -94.2331109006026 2.04353195836219E-06 174.862334226839 2.04353195837937E-06 174.862334226392 0.998216569781615 -94.2418274823544 
! Gamma         0.0541523372252345 38.1068139982352 0.0542486391040638 38.1069748691284 
! Port Impedance         50               0                50               0                
1.816                          0.998190045128293 -94.3435935882246 2.08812997451242E-06 174.750720540272 2.08812997449089E-06 174.75072054041  0.998208909639428 -94.3496700934225 
! Gamma         0.0541583565565241 38.1152034055363 0.0542546759487306 38.1153642959645 
! Port Impedance         50               0                50               0                
1.8164                         0.998181847897861 -94.4546705075651 2.13385315206002E-06 174.638515511141 2.1338531520478E-06 174.63851551111  0.998201182503973 -94.458068063385 
! Gamma         0.0541643752258688 38.1235928121731 0.0542607121297738 38.1237537221342 
! Port Impedance         50               0                50               0                
1.8168                         0.998173574464892 -94.5663476631791 2.18073376720819E-06 174.525713306557 2.18073376723236E-06 174.525713306711 0.998193387533207 -94.5670267114179 
! Gamma         0.0541703932334879 38.1319822181457 0.0542667476474139 38.1321431476375 
! Port Impedance         50               0                50               0                
1.8172                         0.998165223798555 -94.6786311437291 2.22880513518869E-06 174.412308016337 2.2288051352027E-06 174.412308015916 0.998185523871502 -94.6765514262365 
! Gamma         0.0541764105796005 38.1403716234543 0.0542727825018714 38.1405325724747 
! Port Impedance         50               0                50               0                
1.8176                         0.998156794849853 -94.7915271235016 2.27810164712204E-06 174.29829364853  2.27810164712028E-06 174.29829364763  0.998177590649375 -94.7866476672493 
! Gamma         0.0541824272644254 38.1487610280991 0.0542788166933667 38.1489219966461 
! Port Impedance         50               0                50               0                
1.818                          0.998148286551226 -94.9050418639571 2.32865880883346E-06 174.183664127261 2.3286588088296E-06 174.183664126899 0.998169586983217 -94.8973209657333 
! Gamma         0.0541884432881814 38.1571504320803 0.0542848502221198 38.1573114201518 
! Port Impedance         50               0                50               0                
1.8184                         0.998139697816145 -95.019181715316 2.38051328085099E-06 174.068413296511 2.38051328085918E-06 174.068413296273 0.998161511975003 -95.008576926035 
! Gamma         0.0541944586510872 38.1655398353983 0.0542908830883507 38.165700842992  
! Port Impedance         50               0                50               0                
1.8188                         0.998131027538692 -95.1339531181784 2.43370292014711E-06 173.952534914226 2.43370292016435E-06 173.952534913592 0.998153364712014 -95.1204212267942 
! Gamma         0.0542004733533613 38.1739292380532 0.0542969152922793 38.1740902651671 
! Port Impedance         50               0                50               0                
1.8192                         0.998122274593134 -95.249362605182 2.48826682346371E-06 173.836022651171 2.48826682350014E-06 173.836022651096 0.99814514426654 -95.2328596221939 
! Gamma         0.054206487395222 38.1823186400451 0.0543029468341252 38.1824796866771 
! Port Impedance         50               0                50               0                
1.8196                         0.998113437833479 -95.3654168026958 2.54424537242987E-06 173.718870090816 2.54424537244058E-06 173.718870090109 0.998136849695576 -95.3458979432353 
! Gamma         0.0542125007768878 38.1907080413745 0.0543089777141079 38.1908691075223 
! Port Impedance         50               0                50               0                
1.82                           0.998104516093031 -95.4821224325535 2.60168028035365E-06 173.601070728211 2.60168028034172E-06 173.601070727702 0.998128480040517 -95.4595420990385 
! Gamma         0.0542185134985767 38.1990974420413 0.0543150079324468 38.199258527703  
! Port Impedance         50               0                50               0                
1.8204                         0.998095508183918 -95.5994863138259 2.66061464108416E-06 173.482617965297 2.66061464107141E-06 173.482617964952 0.998120034326838 -95.5737980781715 
! Gamma         0.0542245255605067 38.207486842046  0.0543210374893611 38.2076479472193 
! Port Impedance         50               0                50               0                
1.8208                         0.99808641289662 -95.7175153646343 2.7210929796834E-06 173.363505111211 2.72109297968478E-06 173.363505111292 0.998111511563776 -95.6886719500049 
! Gamma         0.0542305369628958 38.2158762413887 0.0543270663850699 38.2160373660715 
! Port Impedance         50               0                50               0                
1.8212                         0.99807722899948 -95.8362166040047 2.7831613052657E-06 173.243725384054 2.78316130527862E-06 173.243725383405 0.998102910743994 -95.8041698660961 
! Gamma         0.0542365477059616 38.2242656400696 0.054333094619792 38.2244267842598 
! Port Impedance         50               0                50               0                
1.8216                         0.9980679552382  -95.9555971537658 2.84686716592406E-06 173.123271901513 2.84686716591404E-06 173.123271901341 0.998094230843245 -95.9202980616017 
! Gamma         0.0542425577899219 38.2326550380889 0.0543391221937462 38.2328162017844 
! Port Impedance         50               0                50               0                
1.822                          0.998058590335326 -96.0756642404907 2.91225970574904E-06 173.002137686383 2.91225970573309E-06 173.002137686272 0.998085470820021 -96.0370628567198 
! Gamma         0.0542485672149941 38.2410444354469 0.0543451491071511 38.2412056186455 
! Port Impedance         50               0                50               0                
1.8224                         0.998049132989716 -96.1964251974834 2.97938972453083E-06 172.880315660797 2.97938972450524E-06 172.88031566045  0.9980766296152  -96.1544706581624 
! Gamma         0.0542545759813957 38.2494338321437 0.0543511753602251 38.2495950348434 
! Port Impedance         50               0                50               0                
1.8228                         0.998039581875998 -96.3178874668129 3.048309739532E-06 172.757798645367 3.04830973953016E-06 172.757798645362 0.998067706151682 -96.2725279606588 
! Gamma         0.0542605840893438 38.2578232281797 0.0543572009531866 38.2579844503781 
! Port Impedance         50               0                50               0                
1.8232                         0.998029935644005 -96.4400586013935 3.11907405016803E-06 172.634579358272 3.11907405017954E-06 172.634579358231 0.998058699334012 -96.391241348491 
! Gamma         0.0542665915390557 38.2662126235549 0.0543632258862536 38.2663738652501 
! Port Impedance         50               0                50               0                
1.8236                         0.998020192918209 -96.5629462671159 3.19173880500578E-06 172.510650411025 3.191738804965E-06 172.510650410188 0.998049608047998 -96.510617497062 
! Gamma         0.0542725983307482 38.2746020182697 0.0543692501596442 38.2747632794594 
! Port Impedance         50               0                50               0                
1.824                          0.998010352297118 -96.6865582450277 3.26636207167155E-06 172.386004308662 3.26636207164812E-06 172.386004308277 0.99804043116032 -96.6306631744966 
! Gamma         0.0542786044646384 38.2829914123243 0.0543752737735761 38.2831526930064 
! Port Impedance         50               0                50               0                
1.8244                         0.998000412352675 -96.8109024335663 3.34300390988898E-06 172.260633446694 3.34300390988375E-06 172.260633446876 0.998031167518127 -96.7513852432777 
! Gamma         0.0542846099409429 38.2913808057188 0.0543812967282672 38.2915421058912 
! Port Impedance         50               0                50               0                
1.8248                         0.997990371629634 -96.9359868508453 3.42172644727288E-06 172.134530111323 3.42172644726459E-06 172.134530111176 0.998021815948626 -96.8727906619169 
! Gamma         0.0542906147598784 38.2997701984535 0.0543873190239348 38.299931518114  
! Port Impedance         50               0                50               0                
1.8252                         0.997980228644913 -97.0618196369958 3.50259395840984E-06 172.007686472726 3.50259395842052E-06 172.007686472813 0.998012375258656 -96.9948864866617 
! Gamma         0.0542966189216613 38.3081595905286 0.0543933406607965 38.308320929675  
! Port Impedance         50               0                50               0                
1.8256                         0.997969981886936 -97.1884090565643 3.58567294729664E-06 171.880094587571 3.58567294728914E-06 171.880094587127 0.998002844234258 -97.1176798732393 
! Gamma         0.0543026224265082 38.3165489819444 0.0543993616390695 38.3167103405745 
! Port Impedance         50               0                50               0                
1.826                          0.997959629814952 -97.3157635009682 3.67103223322566E-06 171.75174639348  3.67103223319673E-06 171.751746392875 0.99799322164023 -97.2411780786386 
! Gamma         0.0543086252746351 38.324938372701  0.0544053819589708 38.3250997508128 
! Port Impedance         50               0                50               0                
1.8264                         0.997949170858336 -97.4438914910125 3.75874304031419E-06 171.622633709617 3.75874304034991E-06 171.62263370911  0.997983506219671 -97.3653884629306 
! Gamma         0.0543146274662583 38.3333277627987 0.0544114016207174 38.3334891603899 
! Port Impedance         50               0                50               0                
1.8268                         0.997938603415872 -97.5728016794667 3.84887909097134E-06 171.492748232227 3.84887909096869E-06 171.492748232106 0.997973696693514 -97.4903184911298 
! Gamma         0.0543206290015937 38.3417171522376 0.0544174206245262 38.3418785693061 
! Port Impedance         50               0                50               0                
1.8272                         0.997927925855008 -97.7025028537063 3.94151670301903E-06 171.362081532708 3.94151670303709E-06 171.362081532465 0.997963791760048 -97.6159757350956 
! Gamma         0.0543266298808572 38.350106541018  0.0544234389706137 38.3502679775616 
! Port Impedance         50               0                50               0                
1.8276                         0.9979171365111  -97.8330039384186 4.0367348914478E-06 171.230625056577 4.03673489148324E-06 171.230625056544 0.997953790094425 -97.742367875476 
! Gamma         0.0543326301042645 38.3584959291402 0.0544294566591965 38.3586573851567 
! Port Impedance         50               0                50               0                
1.828                          0.997906233686627 -97.9643139983764 4.1346154742133E-06 171.09837011914  4.13461547422858E-06 171.098370119173 0.997943690348157 -97.8695027036945 
! Gamma         0.0543386296720314 38.3668853166042 0.054435473690491 38.3670467920916 
! Port Impedance         50               0                50               0                
1.8284                         0.99789521565038 -98.0964422412809 4.23524318266763E-06 170.965307904633 4.23524318265553E-06 170.96530790466  0.997933491148599 -97.9973881239812 
! Gamma         0.0543446285843732 38.3752747034105 0.0544414900647133 38.3754361983665 
! Port Impedance         50               0                50               0                
1.8288                         0.997884080636636 -98.2293980206751 4.33870577689643E-06 170.831429462114 4.33870577688608E-06 170.831429461832 0.997923191098417 -98.1260321554494 
! Gamma         0.0543506268415054 38.3836640895591 0.0544475057820795 38.3838256039815 
! Port Impedance         50               0                50               0                
1.8292                         0.997872826844303 -98.3631908389321 4.44509416596003E-06 170.696725703758 4.44509416598186E-06 170.696725703753 0.997912788775048 -98.255442934219 
! Gamma         0.0543566244436431 38.3920534750502 0.0544535208428057 38.3922150089369 
! Port Impedance         50               0                50               0                
1.8296                         0.997861452436039 -98.4978303503174 4.55450253353888E-06 170.561187402446 4.55450253359111E-06 170.561187402555 0.997902282730133 -98.3856287155876 
! Gamma         0.0543626213910016 38.4004428598842 0.0544595352471075 38.400604413233  
! Port Impedance         50               0                50               0                
1.83                           0.997849955537342 -98.6333263641307 4.66702846893754E-06 170.424805187777 4.66702846894915E-06 170.424805187948 0.997891671488952 -98.5165978762505 
! Gamma         0.0543686176837959 38.4088322440612 0.0544655489952006 38.4089938168699 
! Port Impedance         50               0                50               0                
1.8304                         0.997838334235621 -98.769688847926 4.78277310385493E-06 170.287569544748 4.78277310386277E-06 170.28756954462  0.997880953549833 -98.6483589165717 
! Gamma         0.0543746133222407 38.4172216275814 0.0544715620873005 38.4173832198479 
! Port Impedance         50               0                50               0                
1.8308                         0.997826586579232 -98.9069279308172 4.90184125542196E-06 170.149470809454 4.90184125542917E-06 170.149470809374 0.997870127383542 -98.7809204629065 
! Gamma         0.054380608306551 38.4256110104451 0.0544775745236227 38.4257726221671 
! Port Impedance         50               0                50               0                