! Touchstone file exported from HFSS 2023.1.0
!        File:           E:/3.%x6211%x7684%x8BBA%x6587/%x65B0%x6D4B%x8BD5/CoaxialF93.aedt
!        Generated:      9:33:19 %x4E0B%x5348  5%x6708 26, 2023
!        Design:         S3
!        Project:        CoaxialF93
!        Setup:          Setup1
!        Solution:       Sweep
!
! Variables:
!        Hin1 = 26mm
!        Hout = 29mm
!        L12 = 15.3mm
!        L13 = 14.5mm
!        L23 = 6.6mm
!        L34 = 12.3mm
!        L45 = 7.7mm
!        L46 = 2.7mm
!        L56 = 8mm
!        L67 = 12.5mm
!        L78 = 9mm
!        L79 = 9.3mm
!        L89 = 16mm
!        Rin = 5mm
!        Rin2 = 4mm
!        Rout = 15mm
!        Rport = 1.15mm
!        Rport2 = 3mm
!        Rportin = 0.5mm
!        d = 3mm
!        d01 = 2.86mm
!        d02 = 3.42mm
!        d03 = 3.62mm
!        d04 = 3.67mm
!        d05 = 3.66mm
!        d06 = 3.7mm
!        d07 = 3.64mm
!        d08 = 3.56mm
!        d09 = 2.87mm
!        d12 = 18mm
!        d12x = 15.5mm
!        d12y = 25mm
!        d23 = 18mm
!        d34 = 30mm
!        hport = 10.4mm
!        hport2 = 10.4mm
!        lport = 12mm
!        lport2 = 1mm
!        lport_2 = 12mm
!        m = 2mm
!        w12 = 12mm
!        w13 = 10mm
!        w34 = 12mm
!        w46 = 8.5mm
!
# GHz S MA R 50.000000
! Terminal data exported
! Port[1] = 1
! Port[2] = 2
1.8                            0.998505609982139 -89.9967197169808 8.81679041330499E-07 179.182203112576 8.81679041330499E-07 179.182203112576 0.998505082847752 -90.0311329863814 
! Gamma         0.0540163416803418 37.7797498281007 0.0538759432632121 37.7795992602813 
! Port Impedance         50               0                50               0                
1.8004                         0.998500277208004 -90.083899918482 8.98338099902391E-07 179.093241663066 8.98338099779616E-07 179.093241649865 0.998499744602696 -90.1182460150175 
! Gamma         0.0540224006343768 37.7881392757265 0.0538819855057597 37.7879886910235 
! Port Impedance         50               0                50               0                
1.8008                         0.998494904608301 -90.1714508473547 9.1535999484884E-07 179.003898832733 9.15359994871942E-07 179.003898829139 0.998494366319863 -90.2057301839146 
! Gamma         0.0540284589164802 37.7965287226777 0.0538880270781283 37.796378121093  
! Port Impedance         50               0                50               0                
1.8012                         0.998489491748749 -90.25937557985  9.32753691348108E-07 178.914171466262 9.32753691243209E-07 178.914171461784 0.998488947558377 -90.2935885918936 
! Gamma         0.0540345165268752 37.8049181689544 0.0538940679805423 37.8047675504901 
! Port Impedance         50               0                50               0                
1.8016                         0.998484038188977 -90.3476772272077 9.50528401993649E-07 178.824056346398 9.50528401934989E-07 178.824056338535 0.99848348787108 -90.3818243734049 
! Gamma         0.0540405734657845 37.8133076145569 0.0539001082132256 37.813156979215  
! Port Impedance         50               0                50               0                
1.802                          0.998478543482415 -90.4363589361598 9.68693595231803E-07 178.733550208329 9.68693595224694E-07 178.733550206787 0.998477986804426 -90.4704406990503 
! Gamma         0.0540466297334308 37.8216970594854 0.053906147776402 37.8215464072679 
! Port Impedance         50               0                50               0                
1.8024                         0.998473007176188 -90.5254238894447 9.872590031971E-07 178.64264978004  9.87259003167467E-07 178.642649775096 0.99847244389837 -90.559440776115 
! Gamma         0.0540526853300367 37.8300865037401 0.0539121866702954 37.8299358346491 
! Port Impedance         50               0                50               0                
1.8028                         0.998467428811012 -90.6148753063291 1.00623462949128E-06 178.551351724929 1.00623462954405E-06 178.551351723521 0.99846685868625 -90.6488278491073 
! Gamma         0.0540587402558246 37.8384759473213 0.0539182248951293 37.8383252613587 
! Port Impedance         50               0                50               0                
1.8032                         0.998461807921077 -90.7047164431399 1.02563075766704E-06 178.459652675251 1.025630757761E-06 178.459652673568 0.998461230694671 -90.7386052003105 
! Gamma         0.0540647945110169 37.8468653902292 0.0539242624511273 37.8467146873971 
! Port Impedance         50               0                50               0                
1.8036                         0.998456144033936 -90.7949505938049 1.04545796036048E-06 178.367549231117 1.04545796030773E-06 178.3675492278   0.998455559443386 -90.8287761503425 
! Gamma         0.0540708480958359 37.8552548324639 0.0539302993385126 37.8551041127644 
! Port Impedance         50               0                50               0                
1.804                          0.998450436670392 -90.8855810904036 1.06572710753864E-06 178.275037946707 1.06572710762181E-06 178.275037949317 0.998449844445177 -90.919344058727 
! Gamma         0.0540769010105036 37.8636442740258 0.0539363355575085 37.8634935374607 
! Port Impedance         50               0                50               0                
1.8044                         0.998444685344378 -90.9766113037279 1.08644937642961E-06 178.182115336081 1.08644937633583E-06 178.182115329663 0.998444085205725 -91.0103123244743 
! Gamma         0.054082953255242 37.872033714915  0.053942371108338 37.8718829614865 
! Port Impedance         50               0                50               0                
1.8048                         0.998438889562833 -91.068044643852 1.10763626069803E-06 178.088777872588 1.10763626052828E-06 178.088777864766 0.998438281223489 -91.1016843866736 
! Gamma         0.054089004830273 37.8804231551319 0.0539484059912241 37.8802723848418 
! Port Impedance         50               0                50               0                
1.8052                         0.998433048825585 -91.1598845607131 1.12929958101908E-06 177.995021991677 1.12929958081846E-06 177.995021986269 0.998432431989569 -91.1934637250945 
! Gamma         0.0540950557358184 37.8888125946765 0.0539544402063895 37.888661807527  
! Port Impedance         50               0                50               0                
1.8056                         0.998427162625224 -91.2521345447028 1.1514514940862E-06 177.900844078766 1.15145149406785E-06 177.900844079394 0.998426536987582 -91.2856538608019 
! Gamma         0.0541011059720999 37.8972020335491 0.053960473754057 37.8970512295422 
! Port Impedance         50               0                50               0                
1.806                          0.998421230446973 -91.3447981272685 1.17410450475096E-06 177.806240486676 1.1741045048454E-06 177.806240487506 0.998420595693519 -91.3782583567796 
! Gamma         0.054107155539339 37.90559147175   0.053966506634449 37.9054406508876 
! Port Impedance         50               0                50               0                
1.8064                         0.998415251768554 -91.4378788815261 1.19727147640364E-06 177.711207521206 1.19727147632773E-06 177.711207519458 0.998414607575611 -91.4712808185678 
! Gamma         0.0541132044377571 37.9139809092794 0.053972538847788 37.9138300715635 
! Port Impedance         50               0                50               0                
1.8068                         0.998409226060062 -91.5313804228837 1.22096564189316E-06 177.615741441657 1.22096564174716E-06 177.615741434123 0.998408572094187 -91.5647248949107 
! Gamma         0.0541192526675756 37.9223703461374 0.0539785703942962 37.9222194915701 
! Port Impedance         50               0                50               0                
1.8072                         0.998403152783822 -91.6253064096766 1.24520061602745E-06 177.519838463704 1.24520061575034E-06 177.519838450134 0.998402488701528 -91.6585942784171 
! Gamma         0.0541253002290156 37.9307597823244 0.0539846012741958 37.9306089109076 
! Port Impedance         50               0                50               0                
1.8076                         0.998397031394254 -91.7196605438138 1.26999040712631E-06 177.42349474891  1.2699904070669E-06 177.423494745437 0.998396356841723 -91.7528927062332 
! Gamma         0.0541313471222981 37.9391492178405 0.0539906314877087 37.9389983295762 
! Port Impedance         50               0                50               0                
1.808                          0.998390861337729 -91.8144465714366 1.29534943066672E-06 177.326706435001 1.29534943058435E-06 177.326706430035 0.998390175950512 -91.8476239607276 
! Gamma         0.0541373933476443 37.947538652686  0.0539966610350567 37.9473877475762 
! Port Impedance         50               0                50               0                
1.8084                         0.998384642052422 -91.9096682835893 1.32129252123296E-06 177.229469589372 1.32129252119101E-06 177.229469589283 0.998383945455141 -91.9427918701894 
! Gamma         0.0541434389052749 37.9559280868611 0.0540026899164617 37.9557771649078 
! Port Impedance         50               0                50               0                
1.8088                         0.998378372968169 -92.0053295169018 1.34783494648884E-06 177.131780248063 1.34783494643428E-06 177.131780247366 0.998377664774195 -92.03840030954  
! Gamma         0.0541494837954106 37.964317520366  0.0540087181321452 37.9641665815711 
! Port Impedance         50               0                50               0                
1.8092                         0.99837205350631 -92.1014341542856 1.37499242157783E-06 177.033634393999 1.37499242154302E-06 177.033634392783 0.998371333317444 -92.1344532010575 
! Gamma         0.0541555280182721 37.972706953201  0.0540147456823287 37.9725559975665 
! Port Impedance         50               0                50               0                
1.8096                         0.998365683079538 -92.1979861256416 1.40278112309579E-06 176.935027957515 1.40278112294583E-06 176.935027953543 0.998364950485676 -92.2309545151153 
! Gamma         0.0541615715740799 37.9810963853662 0.0540207725672335 37.9809454128942 
! Port Impedance         50               0                50               0                
1.81                           0.998359261091737 -92.2949894085823 1.43121770418319E-06 176.83595681731  1.43121770411898E-06 176.83595681276  0.998358515670528 -92.327908270935 
! Gamma         0.0541676144630544 37.9894858168619 0.0540267987870807 37.9893348275543 
! Port Impedance         50               0                50               0                
1.8104                         0.998352786937828 -92.3924480291669 1.46031931061906E-06 176.736416813583 1.46031931051576E-06 176.736416812538 0.998352028254317 -92.4253185373532 
! Gamma         0.0541736566854158 37.9978752476883 0.0540328243420915 37.997724241547  
! Port Impedance         50               0                50               0                
1.8108                         0.998346260003595 -92.4903660626497 1.49010359622785E-06 176.636403719469 1.49010359610615E-06 176.636403718128 0.998345487609861 -92.5231894336035 
! Gamma         0.0541796982413843 38.0062646778457 0.0540388492324867 38.0061136548727 
! Port Impedance         50               0                50               0                
1.8112                         0.998339679665522 -92.5887476342436 1.52058874003845E-06 176.535913267767 1.52058874002551E-06 176.535913268523 0.998338893100302 -92.6215251301132 
! Gamma         0.05418573913118 38.0146541073342 0.0540448734584873 38.0145030675315 
! Port Impedance         50               0                50               0                
1.8116                         0.998333045290619 -92.6875969198973 1.55179346374927E-06 176.434941136689 1.55179346372021E-06 176.434941135078 0.998332244078921 -92.7203298493157 
! Gamma         0.0541917793550228 38.023043536154  0.0540508970203137 38.0228924795236 
! Port Impedance         50               0                50               0                
1.812                          0.998326356236248 -92.786918147087 1.58373704929036E-06 176.333482950752 1.58373704924117E-06 176.333482951143 0.99832553988895 -92.8196078664782 
! Gamma         0.0541978189131325 38.0314329643055 0.0540569199181866 38.0312818908493 
! Port Impedance         50               0                50               0                
1.8124                         0.998319611849939 -92.886715595624 1.61643935720506E-06 176.231534269204 1.61643935717403E-06 176.231534269628 0.998318779863381 -92.9193635105466 
! Gamma         0.0542038578057288 38.0398223917888 0.0540629421523263 38.0396713015088 
! Port Impedance         50               0                50               0                
1.8128                         0.99831281146921 -92.9869935984773 1.64992084675288E-06 176.129090607856 1.64992084666211E-06 176.129090605932 0.998311963324767 -93.0196011650053 
! Gamma         0.0542098960330313 38.0482118186041 0.0540689637229531 38.0480607115023 
! Port Impedance         50               0                50               0                
1.8132                         0.998305954421377 -93.0877565426109 1.68420259539709E-06 176.026147428316 1.68420259539709E-06 176.026147428316 0.998305089585027 -93.1203252687551 
! Gamma         0.0542159335952595 38.0566012447517 0.0540749846302872 38.05645012083   
! Port Impedance         50               0                50               0                
1.8136                         0.998299040023363 -93.1890088698393 1.71930631908361E-06 175.922700120557 1.71930631901562E-06 175.922700119451 0.998298157945232 -93.2215403170084 
! Gamma         0.0542219704926327 38.0649906702318 0.0540810048745486 38.0648395294921 
! Port Impedance         50               0                50               0                
1.814                          0.998292067581501 -93.2907550776971 1.75525439473258E-06 175.818744032751 1.755254394701E-06 175.818744033371 0.998291167695401 -93.3232508622008 
! Gamma         0.0542280067253702 38.0733800950446 0.054087024455957 38.073228937489  
! Port Impedance         50               0                50               0                
1.8144                         0.998285036391333 -93.3929997203275 1.79206988155413E-06 175.714274437339 1.79206988150663E-06 175.714274439731 0.998284118114285 -93.4254615149226 
! Gamma         0.0542340422936911 38.0817695191903 0.0540930433747323 38.0816183448206 
! Port Impedance         50               0                50               0                
1.8148                         0.998277945737404 -93.4957474093863 1.82977654480489E-06 175.609286568479 1.8297765447634E-06 175.609286566811 0.998277008469142 -93.5281769448674 
! Gamma         0.0542400771978145 38.0901589426692 0.0540990616310941 38.0900077514874 
! Port Impedance         50               0                50               0                
1.8152                         0.998270794893055 -93.5990028149649 1.86839887924624E-06 175.50377557334  1.86839887911443E-06 175.503775569501 0.998269838015519 -93.6314018818001 
! Gamma         0.0542461114379591 38.0985483654815 0.0541050792252617 38.0983971574895 
! Port Impedance         50               0                50               0                
1.8156                         0.998263583120203 -93.7027706665299 1.90796213431482E-06 175.397736553468 1.90796213432134E-06 175.397736553051 0.998262605997018 -93.735141116545 
! Gamma         0.0542521450143439 38.1069377876273 0.0541110961574547 38.1067865628272 
! Port Impedance         50               0                50               0                
1.816                          0.998256309669129 -93.8070557538825 1.94849233991652E-06 175.291164549155 1.94849233996763E-06 175.291164549279 0.998255311645057 -93.8393995019921 
! Gamma         0.0542581779271874 38.115327209107  0.0541171124278922 38.1151759675006 
! Port Impedance         50               0                50               0                
1.8164                         0.998248973778245 -93.9118629281357 1.99001633303565E-06 175.184054527763 1.99001633289042E-06 175.184054526784 0.998247954178633 -93.9441819541257 
! Gamma         0.0542642101767084 38.1237166299207 0.0541231280367933 38.1235653715099 
! Port Impedance         50               0                50               0                
1.8168                         0.998241574673869 -94.0171971027116 2.03256178508795E-06 175.076401390992 2.03256178499928E-06 175.076401393236 0.998240532804074 -94.0494934530728 
! Gamma         0.0542702417631251 38.1321060500686 0.0541291429843769 38.1319547748555 
! Port Impedance         50               0                50               0                
1.8172                         0.99823411156999 -94.1230632543572 2.07615723180864E-06 174.968199984848 2.07615723175658E-06 174.968199985728 0.998233046714784 -94.1553390441725 
! Gamma         0.0542762726866559 38.140495469551  0.0541351572708618 38.1403441775375 
! Port Impedance         50               0                50               0                
1.8176                         0.998226583668029 -94.2294664241823 2.12083210204477E-06 174.859445077862 2.12083210204326E-06 174.859445078452 0.998225495090985 -94.261723839068 
! Gamma         0.0542823029475191 38.1488848883682 0.0541411708964668 38.1487335795561 
! Port Impedance         50               0                50               0                
1.818                          0.998218990156586 -94.3364117187156 2.16661674961959E-06 174.75013137694  2.1666167496314E-06 174.750131380271 0.998217877099453 -94.3686530168206 
! Gamma         0.0542883325459327 38.1572743065202 0.0541471838614104 38.1571229809115 
! Port Impedance         50               0                50               0                
1.8184                         0.998211330211197 -94.4439043109848 2.21354248472201E-06 174.640253515835 2.21354248468982E-06 174.640253515566 0.998210191893242 -94.476131825047 
! Gamma         0.0542943614821148 38.1656637240074 0.0541531961659111 38.1655123816041 
! Port Impedance         50               0                50               0                
1.8188                         0.998203602994072 -94.5519494416155 2.26164160801518E-06 174.529806052023 2.2616416079727E-06 174.529806053232 0.998202438611412 -94.5841655810795 
! Gamma         0.0543003897562832 38.1740531408299 0.0541592078101871 38.1739017816339 
! Port Impedance         50               0                50               0                
1.8192                         0.998195807653829 -94.6605524199544 2.31094744534541E-06 174.418783486616 2.31094744521559E-06 174.418783486485 0.998194616378739 -94.6927596731505 
! Gamma         0.0543064173686556 38.182442556988  0.0541652187944566 38.1822911810012 
! Port Impedance         50               0                50               0                
1.8196                         0.998187943325232 -94.7697186252141 2.36149438299641E-06 174.307180226854 2.36149438292203E-06 174.307180227396 0.998186724305424 -94.8019195616024 
! Gamma         0.0543124443194498 38.190831972482  0.0541712291189377 38.1906805797062 
! Port Impedance         50               0                50               0                
1.82                           0.998180009128908 -94.8794535076415 2.41331790666765E-06 174.194990626869 2.41331790665742E-06 174.194990627732 0.998178761486799 -94.9116507801208 
! Gamma         0.0543184706088833 38.1992213873119 0.0541772387838483 38.1990699777492 
! Port Impedance         50               0                50               0                
1.8204                         0.998172004171065 -94.9897625897099 2.46645463901668E-06 174.082208947033 2.46645463900216E-06 174.082208947346 0.998170727003012 -95.0219589369963 
! Gamma         0.0543244962371733 38.2076108014781 0.0541832477894061 38.2074593751303 
! Port Impedance         50               0                50               0                
1.8208                         0.998163927543207 -95.1006514673354 2.52094238073852E-06 173.968829384098 2.52094238062402E-06 173.968829382626 0.99816261991872 -95.1328497164106 
! Gamma         0.0543305212045374 38.2160002149807 0.0541892561358289 38.2158487718498 
! Port Impedance         50               0                50               0                
1.8212                         0.998155778321836 -95.2121258111185 2.57682015231526E-06 173.854846047714 2.57682015244155E-06 173.854846049025 0.998154439282764 -95.2443288797509 
! Gamma         0.0543365455111927 38.22438962782   0.0541952638233341 38.2242381679079 
! Port Impedance         50               0                50               0                
1.8216                         0.998147555568144 -95.324191367611 2.6341282382475E-06 173.740252974274 2.63412823816189E-06 173.740252972091 0.998146184127844 -95.3564022669519 
! Gamma         0.0543425691573562 38.2327790399962 0.0542012708521392 38.2326275633048 
! Port Impedance         50               0                50               0                
1.822                          0.998139258327712 -95.4368539606089 2.69290823173734E-06 173.625044113188 2.69290823170583E-06 173.625044114569 0.998137853470172 -95.4690757978663 
! Gamma         0.0543485921432449 38.2411684515095 0.0542072772224613 38.2410169580407 
! Port Impedance         50               0                50               0                
1.8224                         0.998130885630181 -95.5501194924727 2.75320308229958E-06 173.509213337148 2.7532030821854E-06 173.509213335606 0.998129446309137 -95.582355473665 
! Gamma         0.0543546144690757 38.2495578623601 0.0542132829345177 38.2494063521159 
! Port Impedance         50               0                50               0                
1.8228                         0.998122436488936 -95.6639939454747 2.81505714473251E-06 173.39275443176  2.81505714458172E-06 173.392754429065 0.998120961626943 -95.6962473782667 
! Gamma         0.0543606361350653 38.2579472725483 0.0542192879885254 38.2577957455305 
! Port Impedance         50               0                50               0                
1.8232                         0.998113909900766 -95.7784833831749 2.87851622992953E-06 173.27566109465  2.87851622992958E-06 173.275661094803 0.998112398388247 -95.8107576797993 
! Gamma         0.0543666571414304 38.2663366820743 0.0542252923847012 38.2661851382848 
! Port Impedance         50               0                50               0                
1.8236                         0.998105304845526 -95.8935939518248 2.9436276583572E-06 173.157926941063 2.94362765837977E-06 173.157926942017 0.998103755539787 -95.925892632092 
! Gamma         0.0543726774883873 38.2747260909382 0.054231296123262 38.274574530379  
! Port Impedance         50               0                50               0                
1.824                          0.998096620285784 -96.0093318818018 3.01044031519516E-06 173.039545502362 3.01044031514062E-06 173.039545501056 0.998095032009997 -96.0416585762   
! Gamma         0.0543786971761527 38.2831154991404 0.0542372992044242 38.2829639218133 
! Port Impedance         50               0                50               0                
1.8244                         0.998087855166463 -96.1257034890738 3.07900470699618E-06 172.920510209242 3.07900470683678E-06 172.920510206992 0.998086226708618 -96.1580619419633 
! Gamma         0.0543847162049426 38.291504906681  0.0542433016284045 38.2913533125879 
! Port Impedance         50               0                50               0                
1.8248                         0.998079008414475 -96.2427151766939 3.14937302208911E-06 172.800814405038 3.14937302215952E-06 172.800814407188 0.998077338526295 -96.2751092495984 
! Gamma         0.0543907345749734 38.2998943135602 0.0542493033954191 38.299742702703  
! Port Impedance         50               0                50               0                
1.8252                         0.998070078938342 -96.3603734363282 3.22159919267156E-06 172.68045134269  3.22159919267451E-06 172.680451344786 0.998068366334162 -96.3928071113258 
! Gamma         0.054396752286461 38.3082837197783 0.0542553045056844 38.308132092159  
! Port Impedance         50               0                50               0                
1.8256                         0.998061065627813 -96.4786848498153 3.2957389594162E-06 172.559414184115 3.29573895946472E-06 172.559414185046 0.998059308983423 -96.5111622330338 
! Gamma         0.0544027693396215 38.3166731253355 0.0542613049594164 38.3165214809559 
! Port Impedance         50               0                50               0                
1.826                          0.998051967353464 -96.5976560907596 3.37184993831509E-06 172.437695983073 3.37184993816116E-06 172.43769598125  0.998050165304913 -96.6301814159779 
! Gamma         0.0544087857346705 38.325062530232  0.0542673047568311 38.3249108690939 
! Port Impedance         50               0                50               0                
1.8264                         0.998042782966295 -96.7172939261591 3.44999169105859E-06 172.31528970218  3.44999169117247E-06 172.315289703883 0.998040934108656 -96.7498715585193 
! Gamma         0.054414801471824 38.333451934468  0.0542733038981444 38.3333002565734 
! Port Impedance         50               0                50               0                
1.8268                         0.998033511297317 -96.8376052180682 3.53022579824371E-06 172.192188204964 3.53022579852852E-06 172.192188210244 0.998031614183409 -96.8702396579018 
! Gamma         0.0544208165512974 38.3418413380437 0.0542793023835721 38.3416896433945 
! Port Impedance         50               0                50               0                
1.8272                         0.998024151157121 -96.9585969252965 3.61261593498627E-06 172.068384255323 3.61261593517537E-06 172.068384257134 0.998022204296189 -96.9912928120687 
! Gamma         0.0544268309733062 38.3502307409593 0.0542853002133296 38.3500790295575 
! Port Impedance         50               0                50               0                
1.8276                         0.998014701335444 -97.0802761051447 3.69722794985347E-06 171.943870505305 3.69722794968018E-06 171.943870504924 0.998012703191794 -97.1130382215201 
! Gamma         0.0544328447380659 38.3586201432152 0.0542912973876324 38.3584684150625 
! Port Impedance         50               0                50               0                
1.828                          0.998005160600722 -97.2026499151786 3.78412994688686E-06 171.818639504356 3.78412994693869E-06 171.818639506783 0.998003109592309 -97.2354831912135 
! Gamma         0.0544388578457917 38.3670095448114 0.054297293906696 38.3668577999098 
! Port Impedance         50               0                50               0                
1.8284                         0.99799552769963 -97.3257256150415 3.87339237273429E-06 171.692683702421 3.87339237270365E-06 171.692683702713 0.997993422196597 -97.3586351325064 
! Gamma         0.0544448702966987 38.3753989457482 0.0543032897707356 38.3752471840995 
! Port Impedance         50               0                50               0                
1.8288                         0.997985801356607 -97.4495105683076 3.96508810436804E-06 171.565995428667 3.96508810443528E-06 171.565995428928 0.997983639679782 -97.4825015651439 
! Gamma         0.0544508820910021 38.3837883460259 0.0543092849799662 38.383636567632  
! Port Impedance         50               0                50               0                
1.8292                         0.99797598027338 -97.5740122443755 4.05929254340055E-06 171.438566906997 4.05929254335688E-06 171.438566907133 0.997973760692709 -97.6070901192915 
! Gamma         0.0544568932289167 38.3921777456446 0.0543152795346027 38.3920259505073 
! Port Impedance         50               0                50               0                
1.8296                         0.997966063128464 -97.6992382204038 4.15608371247853E-06 171.310390249065 4.15608371249336E-06 171.310390250673 0.997963783861399 -97.7324085376154 
! Gamma         0.0544629037106573 38.4005671446045 0.0543212734348601 38.4004153327258 
! Port Impedance         50               0                50               0                
1.83                           0.997956048576653 -97.8251961832908 4.25554235646408E-06 171.181457446474 4.255542356521E-06 171.181457448029 0.997953707786484 -97.8584646774101 
! Gamma         0.0544689135364387 38.4089565429059 0.0543272666809529 38.4088047142876 
! Port Impedance         50               0                50               0                
1.8304                         0.997945935248502 -97.9518939316969 4.35775204834095E-06 171.051760376632 4.35775204826597E-06 171.051760375502 0.997943531042626 -97.9852665127761 
! Gamma         0.0544749227064754 38.417345940549  0.0543332592730959 38.417194095193  
! Port Impedance         50               0                50               0                
1.8308                         0.997935721749788 -98.0793393781146 4.46279929843461E-06 170.921290794112 4.4627992984152E-06 170.921290793223 0.997933252177924 -98.1128221368476 
! Gamma         0.0544809312209819 38.425735337534  0.0543392512115034 38.4255834754422 
! Port Impedance         50               0                50               0                