! Touchstone file exported from HFSS 2023.1.0
!        File:           E:/3.%x6211%x7684%x8BBA%x6587/%x65B0%x6D4B%x8BD5/CoaxialF93.aedt
!        Generated:      9:33:29 %x4E0B%x5348  5%x6708 26, 2023
!        Design:         S4
!        Project:        CoaxialF93
!        Setup:          Setup1
!        Solution:       Sweep
!
! Variables:
!        Hin1 = 26mm
!        Hout = 29mm
!        L12 = 14.8mm
!        L13 = 14.75mm
!        L23 = 6.95mm
!        L34 = 12.5mm
!        L45 = 7.75mm
!        L46 = 3mm
!        L56 = 8mm
!        L67 = 12.5mm
!        L78 = 8.95mm
!        L79 = 9.78mm
!        L89 = 15.8mm
!        Rin = 5mm
!        Rin2 = 4mm
!        Rout = 15mm
!        Rport = 1.15mm
!        Rport2 = 3mm
!        Rportin = 0.5mm
!        d = 3mm
!        d01 = 2.9mm
!        d02 = 3.52mm
!        d03 = 3.66mm
!        d04 = 3.72mm
!        d05 = 3.735mm
!        d06 = 3.71mm
!        d07 = 3.672mm
!        d08 = 3.534mm
!        d09 = 2.92mm
!        d12 = 18mm
!        d12x = 15.5mm
!        d12y = 25mm
!        d23 = 18mm
!        d34 = 30mm
!        hport = 10.4mm
!        hport2 = 10.4mm
!        lport = 12mm
!        lport2 = 1mm
!        lport_2 = 12mm
!        m = 2mm
!        w12 = 12mm
!        w13 = 10mm
!        w34 = 12mm
!        w46 = 8.5mm
!
# GHz S MA R 50.000000
! Terminal data exported
! Port[1] = 1
! Port[2] = 2
1.8                            0.998497951783244 -90.005310018718 1.00642064580613E-06 179.115308513956 1.00642064580613E-06 179.115308513956 0.998488028037779 -90.1407039801898 
! Gamma         0.0539805701393798 37.779710041315  0.0539620771558199 37.7797105179308 
! Port Impedance         50               0                50               0                
1.8004                         0.998492501252103 -90.0934598931667 1.02572535513045E-06 179.025241965018 1.02572535519383E-06 179.02524196424  0.998482555942487 -90.228949190301 
! Gamma         0.053986624678446 37.7880994844538 0.0539681316959009 37.788099961641  
! Port Impedance         50               0                50               0                
1.8008                         0.9984870093318  -90.1819908697226 1.04545695367881E-06 178.934782965699 1.04545695373117E-06 178.934782962449 0.998477042304562 -90.3175763530274 
! Gamma         0.0539926785460532 37.7964889269185 0.0539741855645691 37.796489404677  
! Port Impedance         50               0                50               0                
1.8012                         0.998481475563035 -90.2709061592938 1.06562615152644E-06 178.843928196591 1.06562615155462E-06 178.843928194022 0.99847148666242 -90.4065886918818 
! Gamma         0.0539987317424244 37.8048783687094 0.0539802387620482 37.804878847039  
! Port Impedance         50               0                50               0                
1.8016                         0.998475899479931 -90.3602090099422 1.08624395973339E-06 178.752674308782 1.08624395981314E-06 178.752674306477 0.99846588854786 -90.4959894677551 
! Gamma         0.0540047842677826 37.8132678098266 0.0539862912885616 37.8132682887273 
! Port Impedance         50               0                50               0                
1.802                          0.998470280609925 -90.4499027074296 1.10732169978365E-06 178.661017908807 1.10732169985544E-06 178.66101790465  0.998460247485943 -90.5857819794675 
! Gamma         0.0540108361223507 37.8216572502703 0.0539923431443325 37.8216577297421 
! Port Impedance         50               0                50               0                
1.8024                         0.998464618473646 -90.5399905757747 1.12887101313134E-06 178.568955566114 1.12887101318996E-06 178.568955564642 0.998454562994881 -90.6759695643297 
! Gamma         0.0540168873063515 37.8300466900408 0.0539983943295841 37.8300471700835 
! Port Impedance         50               0                50               0                
1.8028                         0.998458912584796 -90.6304759778189 1.15090387127748E-06 178.476483813496 1.15090387127623E-06 178.476483810148 0.998448834585904 -90.7665555987141 
! Gamma         0.0540229378200075 37.8384361291384 0.0540044448445394 37.8384366097519 
! Port Impedance         50               0                50               0                
1.8032                         0.998453162450031 -90.7213623158028 1.17343258610192E-06 178.383599130685 1.17343258621307E-06 178.383599129194 0.998443061763149 -90.8575434986361 
! Gamma         0.0540289876635412 37.8468255675631 0.0540104946894214 37.8468260487474 
! Port Impedance         50               0                50               0                
1.8036                         0.998447367568832 -90.8126530319537 1.19646982087247E-06 178.290297970531 1.19646982091933E-06 178.290297969275 0.998437244023522 -90.9489367203469 
! Gamma         0.054035036837175 37.8552150053154 0.0540165438644528 37.8552154870704 
! Port Impedance         50               0                50               0                
1.804                          0.998441527433375 -90.9043516090824 1.22002860084364E-06 178.196576733693 1.22002860096159E-06 178.196576736907 0.998431380856577 -91.0407387609353 
! Gamma         0.0540410853411312 37.8636044423953 0.0540225923698563 37.8636049247209 
! Port Impedance         50               0                50               0                
1.8044                         0.998435641528407 -90.9964615711924 1.24412232524167E-06 178.102431787101 1.24412232525484E-06 178.102431785983 0.998425471744381 -91.1329531589427 
! Gamma         0.054047133175632 37.8719938788031 0.0540286402058544 37.8719943616992 
! Port Impedance         50               0                50               0                
1.8048                         0.998429709331107 -91.088986484099 1.26876477868104E-06 178.007859444261 1.26876477869993E-06 178.007859443872 0.99841951616138 -91.2255834949878 
! Gamma         0.0540531803408992 37.8803833145391 0.0540346873726695 37.8803837980056 
! Port Impedance         50               0                50               0                
1.8052                         0.998423730310954 -91.1819299560607 1.29397014398103E-06 177.912855983139 1.29397014405766E-06 177.912855984364 0.998413513574259 -91.318633392403 
! Gamma         0.0540592268371548 37.8887727496034 0.0540407338705239 37.8887732336402 
! Port Impedance         50               0                50               0                
1.8056                         0.998417703929583 -91.2752956384216 1.3197530145233E-06 177.81741763376  1.31975301450344E-06 177.817417631563 0.998407463441806 -91.4121065178833 
! Gamma         0.0540652726646206 37.8971621839963 0.0540467796996397 37.8971626686033 
! Port Impedance         50               0                50               0                
1.806                          0.998411629640647 -91.3690872262656 1.34612840746147E-06 177.72154057952  1.34612840744613E-06 177.721540579228 0.998401365214764 -91.5060065821464 
! Gamma         0.0540713178235183 37.905551617718  0.054052824860239 37.9055521028952 
! Port Impedance         50               0                50               0                
1.8064                         0.99840550688967 -91.4633084590835 1.37311177754554E-06 177.625220959385 1.37311177759856E-06 177.625220959608 0.998395218335687 -91.6003373406055 
! Gamma         0.0540773623140692 37.9139410507687 0.0540588693525436 37.913941536516  
! Port Impedance         50               0                50               0                
1.8068                         0.998399335113901 -91.5579631214514 1.40071903122773E-06 177.528454865761 1.4007190313001E-06 177.528454868588 0.998389022238792 -91.6951025940543 
! Gamma         0.054083406136495 37.9223304831487 0.0540649131767755 37.9223309694659 
! Port Impedance         50               0                50               0                
1.8072                         0.998393113742157 -91.6530550437226 1.4289665411331E-06 177.431238350155 1.42896654117808E-06 177.431238346574 0.998382776349798 -91.7903061893654 
! Gamma         0.0540894492910168 37.9307199148581 0.0540709563331561 37.9307204017452 
! Port Impedance         50               0                50               0                
1.8076                         0.998386842194678 -91.748588102732 1.45787116124912E-06 177.333567395642 1.45787116131368E-06 177.333567397126 0.99837648008578 -91.8859520202012 
! Gamma         0.0540954917778559 37.9391093458972 0.054076998821907 37.9391098333542 
! Port Impedance         50               0                50               0                
1.808                          0.998380519882956 -91.844566222514 1.48745024293155E-06 177.235437961567 1.48745024304031E-06 177.235437963234 0.998370132855003 -91.9820440277382 
! Gamma         0.0541015335972332 37.9474987762663 0.0540830406432497 37.9474992642929 
! Port Impedance         50               0                50               0                
1.8084                         0.998374146209584 -91.9409933750337 1.51772165045106E-06 177.136845942625 1.5177216506082E-06 177.136845946281 0.998363734056759 -92.0785862014056 
! Gamma         0.0541075747493697 37.9558882059654 0.0540890817974054 37.9558886945617 
! Port Impedance         50               0                50               0                
1.8088                         0.998367720568087 -92.0378735809317 1.54870377898353E-06 177.037787191688 1.54870377904121E-06 177.037787191445 0.9983572830812  -92.1755825796373 
! Gamma         0.0541136152344862 37.964277634995  0.0540951222845952 37.9642781241608 
! Port Impedance         50               0                50               0                
1.8092                         0.99836124234275 -92.135210910284 1.58041557052296E-06 176.938257495314 1.58041557062631E-06 176.938257498875 0.998350779309172 -92.2730372506383 
! Gamma         0.0541196550528034 37.9726670633551 0.0541011621050403 37.9726675530903 
! Port Impedance         50               0                50               0                
1.8096                         0.998354710908454 -92.233009483375 1.61287653358471E-06 176.838252609982 1.61287653368836E-06 176.838252613373 0.998344222112032 -92.3709543531661 
! Gamma         0.0541256942045419 37.981056491046  0.0541072012589615 37.9810569813506 
! Port Impedance         50               0                50               0                
1.81                           0.99834812563049 -92.3312734714861 1.64610676061737E-06 176.737768222364 1.64610676065305E-06 176.737768224113 0.998337610851479 -92.4693380773263 
! Gamma         0.0541317326899221 37.9894459180679 0.0541132397465796 37.9894464089418 
! Port Impedance         50               0                50               0                
1.8104                         0.998341485864383 -92.4300070976996 1.68012694820268E-06 176.636799969453 1.68012694822384E-06 176.636799968397 0.998330944879366 -92.5681926653847 
! Gamma         0.0541377705091644 37.9978353444211 0.0541192775681152 37.9978358358642 
! Port Impedance         50               0                50               0                
1.8108                         0.99833479095571 -92.5292146377172 1.71495841682168E-06 176.535343438147 1.7149584168415E-06 176.535343436136 0.998324223537511 -92.6675224125936 
! Gamma         0.0541438076624888 38.0062247701057 0.0541253147237889 38.006225262118  
! Port Impedance         50               0                50               0                
1.8112                         0.998328040239906 -92.6289004206948 1.75062313203602E-06 176.433394154729 1.75062313211676E-06 176.433394154895 0.998317446157517 -92.7673316680352 
! Gamma         0.0541498441501157 38.0146141951221 0.0541313512138212 38.0146146877033 
! Port Impedance         50               0                50               0                
1.8116                         0.998321233042076 -92.7290688300941 1.78714372562769E-06 176.33094759275  1.78714372568098E-06 176.330947595362 0.998310612060566 -92.8676248354812 
! Gamma         0.0541558799722648 38.0230036194703 0.0541373870384322 38.0230041126205 
! Port Impedance         50               0                50               0                
1.812                          0.998314368676797 -92.8297243045489 1.82454351863116E-06 176.227999171403 1.82454351869157E-06 176.227999172143 0.998303720557225 -92.9684063742685 
! Gamma         0.0541619151291561 38.0313930431507 0.0541434221978422 38.0313935368697 
! Port Impedance         50               0                50               0                
1.8124                         0.998307446447915 -92.9308713387507 1.86284654401597E-06 176.124544242948 1.86284654405586E-06 176.124544244139 0.998296770947242 -93.0696808001929 
! Gamma         0.0541679496210093 38.0397824661634 0.0541494566922712 38.0397829604512 
! Port Impedance         50               0                50               0                
1.8128                         0.998300465648339 -93.0325144843495 1.90207757120882E-06 176.020578111152 1.90207757127641E-06 176.020578110306 0.998289762519334 -93.1714526864197 
! Gamma         0.0541739834480441 38.0481718885088 0.0541554905219391 38.0481723833652 
! Port Impedance         50               0                50               0                
1.8132                         0.998293425559829 -93.1346583508737 1.94226213088418E-06 175.916096008155 1.94226213096321E-06 175.916096009487 0.998282694550981 -93.2737266644126 
! Gamma         0.0541800166104798 38.0565613101869 0.0541615236870657 38.0565618056118 
! Port Impedance         50               0                50               0                
1.8136                         0.998286325452787 -93.2373076066673 1.9834265410646E-06 175.811093118191 1.98342654105306E-06 175.811093118834 0.998275566308201 -93.3765074248809 
! Gamma         0.0541860491085359 38.064950731198  0.0541675561878707 38.0649512271915 
! Port Impedance         50               0                50               0                
1.814                          0.998279164586025 -93.340466979846 2.02559793401531E-06 175.705564551765 2.02559793405241E-06 175.705564553998 0.998268377045327 -93.4797997187451 
! Gamma         0.0541920809424316 38.0733401515423 0.0541735880245737 38.0733406481042 
! Port Impedance         50               0                50               0                
1.8144                         0.998271942206551 -93.4441412592722 2.06880428397228E-06 175.599505366475 2.06880428396569E-06 175.599505365265 0.998261126004784 -93.5836083581225 
! Gamma         0.0541981121123861 38.0817295712201 0.0541796191973941 38.0817300683503 
! Port Impedance         50               0                50               0                
1.8148                         0.99826465754933 -93.5483352955496 2.11307443655214E-06 175.492910547015 2.11307443654568E-06 175.492910548085 0.99825381241685 -93.6879382173318 
! Gamma         0.0542041426186184 38.0901189902316 0.0541856497065511 38.09011948793   
! Port Impedance         50               0                50               0                
1.8152                         0.998257309837051 -93.6530540020371 2.15843813829661E-06 175.38577502118  2.1584381383054E-06 175.385775020489 0.998246435499421 -93.7927942339182 
! Gamma         0.0542101724613474 38.098508408577  0.054191679552264 38.0985089068436 
! Port Impedance         50               0                50               0                
1.8156                         0.998249898279883 -93.758302355884 2.20492606848255E-06 175.278093642278 2.2049260686357E-06 175.278093643653 0.998238994457761 -93.898181409699 
! Gamma         0.0542162016407918 38.1068978262565 0.0541977087347518 38.1068983250911 
! Port Impedance         50               0                50               0                
1.816                          0.998242422075232 -93.8640853990848 2.25256987129274E-06 175.169861205828 2.2525698713995E-06 175.169861207084 0.998231488484257 -94.0041048118305 
! Gamma         0.0542222301571704 38.1152872432704 0.0542037372542335 38.1152877426729 
! Port Impedance         50               0                50               0                
1.8164                         0.99823488040748 -93.9704082395567 2.30140218914986E-06 175.061072431845 2.30140218916675E-06 175.061072432805 0.998223916758158 -94.1105695738961 
! Gamma         0.0542282580107017 38.1236766596188 0.0542097651109278 38.1236771595892 
! Port Impedance         50               0                50               0                
1.8168                         0.998227272447734 -94.0772760522377 2.35145669813529E-06 174.951721977034 2.35145669820222E-06 174.951721978168 0.998216278445316 -94.2175808970174 
! Gamma         0.054234285201604 38.1320660753019 0.0542157923050535 38.1320665758402 
! Port Impedance         50               0                50               0                
1.8172                         0.998219597353555 -94.184694080208 2.40276814417012E-06 174.8418044185   2.40276814418326E-06 174.841804417719 0.998208572697915 -94.3251440509868 
! Gamma         0.0542403117300958 38.1404554903201 0.0542218188368292 38.140455991426  
! Port Impedance         50               0                50               0                
1.8176                         0.998211854268689 -94.2926676358335 2.45537238070835E-06 174.731314271441 2.45537238075549E-06 174.731314273291 0.998200798654197 -94.4332643754247 
! Gamma         0.0542463375963952 38.1488449046735 0.0542278447064733 38.148845406347  
! Port Impedance         50               0                50               0                
1.818                          0.998204042322786 -94.4012021019336 2.50930640749565E-06 174.620245970841 2.50930640750631E-06 174.620245971566 0.998192955438179 -94.541947280959 
! Gamma         0.0542523628007202 38.1572343183623 0.054233869914204 38.1572348206033 
! Port Impedance         50               0                50               0                
1.8184                         0.998196160631118 -94.5103029329724 2.56460841201777E-06 174.508593883861 2.56460841207168E-06 174.508593885661 0.998185042159367 -94.6511982504307 
! Gamma         0.0542583873432889 38.1656237313868 0.0542398944602398 38.1656242341953 
! Port Impedance         50               0                50               0                
1.8188                         0.998188208294286 -94.6199756562748 2.62131781121607E-06 174.396352294577 2.6213178110526E-06 174.396352293474 0.998177057912455 -94.7610228401226 
! Gamma         0.054264411224319 38.1740131437472 0.0542459183447985 38.1740136471229 
! Port Impedance         50               0                50               0                
1.8192                         0.998180184397918 -94.7302258732674 2.67947529527321E-06 174.283515416192 2.67947529534249E-06 174.283515418332 0.998169001777032 -94.8714266810156 
! Gamma         0.0542704344440282 38.1824025554436 0.0542519415680982 38.1824030593866 
! Port Impedance         50               0                50               0                
1.8196                         0.998172088012371 -94.8410592607463 2.73912287403764E-06 174.170077384093 2.73912287413949E-06 174.170077385903 0.998160872817259 -94.9824154800695 
! Gamma         0.0542764570026343 38.1907919664764 0.0542579641303568 38.1907924709866 
! Port Impedance         50               0                50               0                
1.82                           0.998163918192407 -94.9524815721699 2.80030392369733E-06 174.056032248334 2.80030392374833E-06 174.056032249224 0.998152670081564 -95.0939950215312 
! Gamma         0.0542824789003546 38.1991813768457 0.0542639860317919 38.1991818819229 
! Port Impedance         50               0                50               0                
1.8204                         0.998155673976881 -95.0644986389803 2.86306323641352E-06 173.941373986864 2.86306323648781E-06 173.941373987301 0.998144392602306 -95.2061711682716 
! Gamma         0.0542885001374065 38.2075707865517 0.0542700072726212 38.207571292196  
! Port Impedance         50               0                50               0                
1.8208                         0.998147354388406 -95.1771163719511 2.92744707147392E-06 173.826096487902 2.92744707161613E-06 173.826096489981 0.998136039395451 -95.3189498631487 
! Gamma         0.0542945207140072 38.2159601955947 0.0542760278530621 38.2159607018059 
! Port Impedance         50               0                50               0                
1.8212                         0.998138958433019 -95.2903407625652 2.99350320905693E-06 173.710193558095 2.99350320902235E-06 173.71019355923  0.998127609460222 -95.4323371304018 
! Gamma         0.054300540630374 38.2243496039749 0.054282047773332 38.2243501107529 
! Port Impedance         50               0                50               0                
1.8216                         0.998130485099833 -95.4041778844205 3.06128100470865E-06 173.593658922687 3.06128100485025E-06 173.593658923117 0.998119101778754 -95.5463390770733 
! Gamma         0.0543065598867237 38.2327390116926 0.0542880670336482 38.2327395190372 
! Port Impedance         50               0                50               0                
1.822                          0.998121933360685 -95.5186338946661 3.13083144828974E-06 173.476486212814 3.13083144835251E-06 173.476486214624 0.998110515315734 -95.6609618944626 
! Gamma         0.0543125784832734 38.2411284187478 0.0542940856342277 38.241128926659  
! Port Impedance         50               0                50               0                
1.8224                         0.99811330216977 -95.6337150354698 3.20220722326422E-06 173.358668979449 3.20220722332226E-06 173.358668981407 0.998101849018031 -95.7762118596102 
! Gamma         0.0543185964202397 38.2495178251408 0.0543001035752876 38.2495183336187 
! Port Impedance         50               0                50               0                
1.8228                         0.998104590463276 -95.7494276355157 3.27546276900872E-06 173.240200682251 3.27546276899922E-06 173.240200682604 0.998093101814323 -95.8920953368145 
! Gamma         0.0543246136978393 38.257907230872  0.0543061208570447 38.2579077399162 
! Port Impedance         50               0                50               0                
1.8232                         0.998095797158993 -95.8657781115356 3.35065434599262E-06 173.121074683763 3.35065434610368E-06 173.121074685699 0.998084272614706 -96.008618779181 
! Gamma         0.0543306303162888 38.2662966359414 0.0543121374797158 38.266297145552  
! Port Impedance         50               0                50               0                
1.8236                         0.998086921155929 -95.9827729698728 3.42784010359278E-06 173.001284259857 3.42784010349437E-06 173.001284261567 0.9980753603103  -96.1257887302048 
! Gamma         0.0543366462758046 38.2746860403493 0.0543181534435176 38.2746865505262 
! Port Impedance         50               0                50               0                
1.824                          0.998077961333906 -96.1004188080794 3.50708015001803E-06 172.880822592201 3.50708015020572E-06 172.880822593933 0.998066363772841 -96.2436118253886 
! Gamma         0.054342661576603 38.2830754440959 0.0543241687486666 38.283075954839  
! Port Impedance         50               0                50               0                
1.8244                         0.998068916553151 -96.2187223165496 3.58843662598456E-06 172.759682760149 3.58843662588663E-06 172.759682760237 0.998057281854268 -96.3620947938954 
! Gamma         0.0543486762189002 38.2914648471815 0.0543301833953791 38.2914653584906 
! Port Impedance         50               0                50               0                
1.8248                         0.998059785653873 -96.3376902801876 3.67197378065464E-06 172.637857750937 3.67197378057609E-06 172.637857752131 0.998048113386289 -96.4812444602374 
! Gamma         0.0543546902029123 38.2998542496062 0.0543361973838714 38.2998547614813 
! Port Impedance         50               0                50               0                
1.8252                         0.998050567455831 -96.4573295801134 3.75775805114226E-06 172.515340451309 3.75775805109076E-06 172.515340449713 0.998038857179947 -96.6010677460035 
! Gamma         0.0543607035288552 38.3082436513703 0.0543422107143598 38.3082441638113 
! Port Impedance         50               0                50               0                
1.8256                         0.998041260757889 -96.5776471954049 3.84585814535E-06 172.39212364108  3.84585814537096E-06 172.392123641176 0.998029512025172 -96.7215716716228 
! Gamma         0.0543667161969447 38.3166330524739 0.0543482233870602 38.3166335654808 
! Port Impedance         50               0                50               0                
1.826                          0.998031864337565 -96.6986502048799 3.93634512809185E-06 172.268200005595 3.93634512807653E-06 172.268200005671 0.998020076690311 -96.84276335817  
! Gamma         0.0543727282073967 38.3250224529174 0.0543542354021887 38.32502296649   
! Port Impedance         50               0                50               0                
1.8264                         0.99802237695056 -96.8203457889164 4.02929251024741E-06 172.143562116187 4.0292925102085E-06 172.143562114912 0.998010549921664 -96.9646500292087 
! Gamma         0.0543787395604266 38.3334118527009 0.0543602467599609 38.3334123668391 
! Port Impedance         50               0                50               0                
1.8268                         0.998012797330281 -96.9427412313154 4.12477634320969E-06 172.018202441465 4.12477634332159E-06 172.018202442399 0.998000930442991 -97.087239012678 
! Gamma         0.0543847502562501 38.3418012518246 0.0543662574605926 38.3418017665283 
! Port Impedance         50               0                50               0                
1.8272                         0.99800312418735 -97.0658439212036 4.22287531591709E-06 171.892113344309 4.22287531595275E-06 171.892113345129 0.997991216955018 -97.2105377428206 
! Gamma         0.0543907602950824 38.3501906502887 0.0543722675042994 38.350191165558  
! Port Impedance         50               0                50               0                
1.8276                         0.997993356209098 -97.1896613549803 4.32367085592495E-06 171.765287069007 4.32367085594865E-06 171.765287069887 0.997981408134921 -97.3345537621548 
! Gamma         0.0543967696771388 38.3585800480936 0.0543782768912967 38.3585805639282 
! Port Impedance         50               0                50               0                
1.828                          0.997983492059051 -97.3142011383075 4.42724723581974E-06 171.637715750708 4.4272472359035E-06 171.63771575053  0.997971502635804 -97.4592947234909 
! Gamma         0.0544027784026345 38.3669694452393 0.0543842856217999 38.3669699616392 
! Port Impedance         50               0                50               0                
1.8284                         0.997973530376392 -97.4394709881459 4.53369168326873E-06 171.509391407146 4.53369168337675E-06 171.509391408104 0.997961499086158 -97.5847683919945 
! Gamma         0.0544087864717844 38.3753588417261 0.0543902936960242 38.3753593586912 
! Port Impedance         50               0                50               0                
1.8288                         0.997963469775423 -97.5654787348371 4.64309449644279E-06 171.380305941129 4.64309449653513E-06 171.380305943057 0.997951396089305 -97.7109826472965 
! Gamma         0.0544147938848036 38.3837482375542 0.0543963011141846 38.3837487550844 
! Port Impedance         50               0                50               0                
1.8292                         0.997953308845   -97.6922323242334 4.75554916338578E-06 171.250451134632 4.75554916338519E-06 171.250451135853 0.997941192222832 -97.8379454856514 
! Gamma         0.0544208006419068 38.3921376327239 0.0544023078764962 38.3921381508191 
! Port Impedance         50               0                50               0                
1.8296                         0.997943046147957 -97.8197398198765 4.87115248764891E-06 171.119818646475 4.87115248761624E-06 171.119818646947 0.997930886038006 -97.9656650221463 
! Gamma         0.0544268067433086 38.4005270272353 0.0544083139831739 38.4005275458954 
! Port Impedance         50               0                50               0                
1.83                           0.997932680220523 -97.9480094052269 4.99000471858482E-06 170.988400012089 4.99000471852247E-06 170.988400011671 0.997920476059175 -98.0941494929605 
! Gamma         0.0544328121892237 38.4089164210887 0.0544143194344324 38.4089169403136 
! Port Impedance         50               0                50               0                
1.8304                         0.997922209571704 -98.0770493859449 5.11220968765517E-06 170.856186639652 5.11220968768324E-06 170.856186640341 0.997909960783148 -98.2234072576774 
! Gamma         0.0544388169798665 38.4173058142842 0.0544203242304863 38.4173063340739 
! Port Impedance         50               0                50               0                
1.8308                         0.99791163268267 -98.2068681922244 5.23787495037071E-06 170.723169808621 5.23787495048467E-06 170.723169809158 0.997899338678567 -98.3534468016522 
! Gamma         0.0544448211154513 38.4256952068222 0.0544263283715503 38.4256957271765 
! Port Impedance         50               0                50               0                