! Touchstone file exported from HFSS 2023.1.0
!        File:           E:/3.%x6211%x7684%x8BBA%x6587/%x65B0%x6D4B%x8BD5/CoaxialF93.aedt
!        Generated:      9:33:43 %x4E0B%x5348  5%x6708 26, 2023
!        Design:         S5
!        Project:        CoaxialF93
!        Setup:          Setup1
!        Solution:       Sweep
!
! Variables:
!        Hin1 = 26mm
!        Hout = 29mm
!        L12 = 14.8mm
!        L13 = 14.75mm
!        L23 = 6.95mm
!        L34 = 12.5mm
!        L45 = 8.3mm
!        L46 = 3.7mm
!        L56 = 8.2mm
!        L67 = 12.5mm
!        L78 = 8.3mm
!        L79 = 11.5mm
!        L89 = 15.3mm
!        Rin = 5mm
!        Rin2 = 4mm
!        Rout = 15mm
!        Rport = 1.15mm
!        Rport2 = 3mm
!        Rportin = 0.5mm
!        d = 3mm
!        d01 = 2.9mm
!        d02 = 3.53mm
!        d03 = 3.66mm
!        d04 = 3.74mm
!        d05 = 3.745mm
!        d06 = 3.74mm
!        d07 = 3.672mm
!        d08 = 3.52mm
!        d09 = 2.92mm
!        d12 = 18mm
!        d12x = 15.5mm
!        d12y = 25mm
!        d23 = 18mm
!        d34 = 30mm
!        hport = 10.4mm
!        hport2 = 10.4mm
!        lport = 12mm
!        lport2 = 1mm
!        lport_2 = 12mm
!        m = 2mm
!        w12 = 12mm
!        w13 = 10mm
!        w34 = 12mm
!        w46 = 8.5mm
!
# GHz S MA R 50.000000
! Terminal data exported
! Port[1] = 1
! Port[2] = 2
1.8                            0.998489819798527 -90.0664094794584 1.1321042272748E-06 179.082973183052 1.1321042272748E-06 179.082973183052 0.998492742036377 -90.1444985376308 
! Gamma         0.0540794396998871 37.7798448051341 0.0540300562616879 37.7798007029303 
! Port Impedance         50               0                50               0                
1.8004                         0.998484343487203 -90.154752643542 1.15389655549898E-06 178.992760910016 1.15389655550747E-06 178.992760912006 0.998487285741475 -90.2328200824282 
! Gamma         0.0540855091110804 37.7882342641846 0.0540361207577636 37.7881901572488 
! Port Impedance         50               0                50               0                
1.8008                         0.99847882554856 -90.2434783115851 1.17617236630983E-06 178.902155508862 1.17617236629776E-06 178.902155508251 0.99848178810556 -90.321523313985 
! Gamma         0.0540915778492721 37.7966237225592 0.0540421845813501 37.7965796108916 
! Port Impedance         50               0                50               0                
1.8012                         0.998473265519994 -90.3325897105234 1.19894382848772E-06 178.811153656419 1.1989438284973E-06 178.811153655691 0.998476248671039 -90.4106114434666 
! Gamma         0.0540976459146864 37.8050131802581 0.0540482477326755 37.8049690638589 
! Port Impedance         50               0                50               0                
1.8016                         0.998467662932271 -90.4220901046905 1.22222345369174E-06 178.719751996662 1.22222345375681E-06 178.719751996586 0.998470666973792 -90.5000877191117 
! Gamma         0.0541037133075471 37.8134026372815 0.0540543102119676 37.813358516151  
! Port Impedance         50               0                50               0                
1.802                          0.998462017309405 -90.5119827963696 1.24602410738125E-06 178.627947135652 1.2460241074312E-06 178.627947135136 0.998465042543056 -90.5899554267766 
! Gamma         0.054109780028078 37.8217920936296 0.0540603720194539 37.821747967768  
! Port Impedance         50               0                50               0                
1.8024                         0.998456328168545 -90.602271126354 1.27035901984616E-06 178.535735643002 1.27035901985295E-06 178.535735642027 0.998459374901312 -90.6802178904883 
! Gamma         0.0541158460765027 37.8301815493027 0.0540664331553616 37.8301374187102 
! Port Impedance         50               0                50               0                
1.8028                         0.998450595019851 -90.6929584745187 1.29524179770429E-06 178.443114037978 1.29524179770784E-06 178.443114037292 0.998453663564158 -90.7708784730081 
! Gamma         0.0541219114530447 37.838571004301  0.0540724936199174 37.8385268689779 
! Port Impedance         50               0                50               0                
1.8032                         0.99844481736637 -90.7840482604016 1.32068643569239E-06 178.350078807767 1.32068643568853E-06 178.350078808849 0.998447908040197 -90.8619405764048 
! Gamma         0.0541279761579274 37.8469604586246 0.0540785534133481 37.8469163185712 
! Port Impedance         50               0                50               0                
1.8036                         0.998438994703907 -90.8755439437957 1.34670732909605E-06 178.256626396306 1.34670732906261E-06 178.256626394793 0.998442107830909 -90.9534076426393 
! Gamma         0.0541340401913741 37.8553499122739 0.0540846125358798 37.8553057674904 
! Port Impedance         50               0                50               0                
1.804                          0.998433126520901 -90.9674490253517 1.37331928624266E-06 178.16275320181  1.37331928619771E-06 178.162753202932 0.998436262430523 -91.0452831541581 
! Gamma         0.0541401035536079 37.8637393652491 0.0540906709877385 37.8636952157358 
! Port Impedance         50               0                50               0                
1.8044                         0.99842721229829 -91.059767047192 1.40053754181533E-06 178.068455585823 1.40053754177662E-06 178.068455586802 0.998430371325889 -91.1375706344991 
! Gamma         0.0541461662448518 37.8721288175503 0.0540967287691499 37.8720846633075 
! Port Impedance         50               0                50               0                
1.8048                         0.998421251509374 -91.1525015935359 1.42837777037482E-06 177.973729864466 1.42837777040678E-06 177.97372986413  0.998424433996349 -91.2302736489078 
! Gamma         0.0541522282653286 37.8805182691778 0.0541027858803394 37.8804741102057 
! Port Impedance         50               0                50               0                
1.8052                         0.99841524361968 -91.2456562913356 1.45685610050657E-06 177.87857230683  1.45685610051279E-06 177.878572306964 0.998418449913597 -91.3233958049645 
! Gamma         0.0541582896152613 37.8889077201319 0.0541088423215322 37.8888635564309 
! Port Impedance         50               0                50               0                
1.8056                         0.998409188086822 -91.3392348109251 1.48598912931727E-06 177.78297914052  1.48598912925318E-06 177.782979140915 0.998412418541547 -91.4169407532238 
! Gamma         0.0541643502948722 37.8972971704127 0.0541148980929531 37.897253001983  
! Port Impedance         50               0                50               0                
1.806                          0.998403084360356 -91.43324086668  1.51579393745737E-06 177.686946547851 1.51579393746426E-06 177.686946547378 0.998406339336187 -91.5109121878648 
! Gamma         0.0541704103043841 37.9056866200205 0.0541209531948267 37.9056424468625 
! Port Impedance         50               0                50               0                
1.8064                         0.99839693188163 -91.5276782176902 1.5462881050084E-06 177.590470664444 1.54628810499255E-06 177.590470664301 0.998400211745438 -91.6053138473543 
! Gamma         0.0541764696440192 37.9140760689555 0.0541270076273775 37.9140318910694 
! Port Impedance         50               0                50               0                
1.8068                         0.998390730083641 -91.6225506684452 1.57748972743219E-06 177.493547578887 1.57748972744124E-06 177.493547579368 0.998394035209011 -91.7001495151216 
! Gamma         0.0541825283139999 37.9224655172179 0.0541330613908295 37.9224213346041 
! Port Impedance         50               0                50               0                
1.8072                         0.998384478390874 -91.7178620695314 1.60941743245046E-06 177.396173333925 1.60941743245689E-06 177.396173333936 0.99838780915825 -91.795423020246 
! Gamma         0.0541885863145482 37.930854964808  0.0541391144854065 37.9308107774667 
! Port Impedance         50               0                50               0                
1.8076                         0.998378176219154 -91.8136163183435 1.6420903972775E-06 177.298343921513 1.642090397192E-06 177.298343922611 0.998381533015986 -91.8911382381578 
! Gamma         0.0541946436458862 37.9392444117259 0.0541451669113322 37.9392002196576 
! Port Impedance         50               0                50               0                
1.808                          0.998371822975477 -91.9098173598087 1.67552836665327E-06 177.200055288914 1.67552836664829E-06 177.200055290124 0.998375206196374 -91.9872990913506 
! Gamma         0.0542007003082357 37.9476338579719 0.05415121866883 37.9475896611769 
! Port Impedance         50               0                50               0                
1.8084                         0.998365418057851 -92.0064691871244 1.70975167156715E-06 177.101303329484 1.70975167152512E-06 177.101303331482 0.99836882810474 -92.0839095501095 
! Gamma         0.0542067563018185 37.9560233035462 0.054157269758123 37.9559791020248 
! Port Impedance         50               0                50               0                
1.8088                         0.998358960855131 -92.1035758425105 1.7447812483548E-06 177.002083892242 1.74478124832384E-06 177.002083891226 0.998362398137411 -92.1809736332509 
! Gamma         0.0542128116268563 37.9644127484491 0.0541633201794341 37.9643685422016 
! Port Impedance         50               0                50               0                
1.8092                         0.998352450746843 -92.2011414179758 1.78063865889461E-06 176.90239276501  1.78063865892305E-06 176.902392765585 0.998355915681555 -92.2784954088769 
! Gamma         0.0542188662835705 37.9728021926807 0.054169369932986 37.9727579817076 
! Port Impedance         50               0                50               0                
1.8096                         0.998345887103011 -92.2991700560983 1.81734611130907E-06 176.802225692872 1.81734611126966E-06 176.802225692906 0.998349380115004 -92.376478995145 
! Gamma         0.0542249202721825 37.9811916362413 0.0541754190190012 37.9811474205428 
! Port Impedance         50               0                50               0                
1.81                           0.998339269283984 -92.3976659508213 1.85492648100052E-06 176.701578365982 1.85492648100127E-06 176.701578365577 0.998342790806085 -92.4749285610504 
! Gamma         0.0542309735929137 37.9895810791312 0.054181467437702 37.9895368587077 
! Port Impedance         50               0                50               0                
1.8104                         0.998332596640244 -92.4966333482647 1.89340333382054E-06 176.600446418241 1.89340333372616E-06 176.600446419269 0.998336147113437 -92.5738483272256 
! Gamma         0.0542370262459851 37.9979705213504 0.0541875151893104 37.9979262962023 
! Port Impedance         50               0                50               0                
1.8108                         0.998325868512227 -92.5960765475516 1.9328009481136E-06 176.498825433013 1.93280094799268E-06 176.498825432303 0.998329448385836 -92.6732425667534 
! Gamma         0.0542430782316177 38.0063599628993 0.0541935622740482 38.006315733027  
! Port Impedance         50               0                50               0                
1.8112                         0.998319084230127 -92.6959999016507 1.97314433924457E-06 176.396710933383 1.97314433915718E-06 176.396710933897 0.998322693961998 -92.7731156059964 
! Gamma         0.0542491295500326 38.0147494037781 0.0541996086921371 38.0147051691819 
! Port Impedance         50               0                50               0                
1.8116                         0.998312243113706 -92.796407818236 2.01445928442346E-06 176.294098388657 2.01445928436647E-06 176.294098388836 0.9983158831704  -92.8734718254426 
! Gamma         0.0542551802014503 38.023138843987  0.0542056544437986 38.0230946046673 
! Port Impedance         50               0                50               0                
1.812                          0.99830534447209 -92.8973047605619 2.05677234813562E-06 176.190983216178 2.05677234808421E-06 176.190983216734 0.998309015329078 -92.9743156605666 
! Gamma         0.0542612301860916 38.0315282835261 0.0542116995292538 38.0314840394833 
! Port Impedance         50               0                50               0                
1.8124                         0.998298387603567 -92.9986952483568 2.10011090907124E-06 176.087360767374 2.10011090902216E-06 176.087360766917 0.998302089745431 -93.0756516027088 
! Gamma         0.054267279504177 38.0399177223959 0.0542177439487238 38.0398734736303 
! Port Impedance         50               0                50               0                
1.8128                         0.998291371795378 -93.1005838587329 2.14450318751386E-06 175.983226337275 2.14450318752675E-06 175.983226337478 0.998295105716015 -93.1774841999705 
! Gamma         0.0542733281559268 38.0483071605963 0.0542237877024295 38.0482629071085 
! Port Impedance         50               0                50               0                
1.8132                         0.998284296323501 -93.2029752271152 2.18997827446237E-06 175.878575163524 2.18997827441879E-06 175.878575163442 0.998288062526337 -93.2798180581269 
! Gamma         0.0542793761415615 38.0566965981278 0.0542298307905916 38.0566523399181 
! Port Impedance         50               0                50               0                
1.8136                         0.998277160452439 -93.3058740481877 2.23656616082029E-06 175.773402420167 2.23656616076813E-06 175.773402420674 0.998280959450645 -93.3826578415586 
! Gamma         0.054285423461301 38.0650860349905 0.0542358732134305 38.0650417720592 
! Port Impedance         50               0                50               0                
1.814                          0.99826996343499 -93.409285076859 2.28429776896345E-06 175.667703221864 2.28429776894011E-06 175.667703221734 0.9982737957517  -93.4860082742003 
! Gamma         0.0542914701153655 38.0734754711846 0.0542419149711666 38.0734312035322 
! Port Impedance         50               0                50               0                
1.8144                         0.998262704512019 -93.5132131292472 2.3332049844173E-06 175.561472617953 2.3332049843065E-06 175.561472618576 0.998266570680566 -93.5898741405096 
! Gamma         0.0542975161039749 38.0818649067103 0.05424795606402 38.0818206343372 
! Port Impedance         50               0                50               0                
1.8148                         0.998255382912231 -93.617663083684 2.38332068891949E-06 175.454705595423 2.38332068894253E-06 175.454705594647 0.998259283476371 -93.6942602864539 
! Gamma         0.0543035614273489 38.0902543415679 0.0542539964922107 38.0902100644745 
! Port Impedance         50               0                50               0                
1.8152                         0.99824799785192 -93.7226398817392 2.43467879570841E-06 175.347397073954 2.43467879570397E-06 175.347397075234 0.998251933366081 -93.7991716205176 
! Gamma         0.0543096060857072 38.0986437757576 0.0542600362559584 38.0985994939444 
! Port Impedance         50               0                50               0                
1.8156                         0.998240548534734 -93.8281485292661 2.4873142845745E-06 175.239541912245 2.48731428453927E-06 175.239541912494 0.99824451956426 -93.9046131147291 
! Gamma         0.0543156500792693 38.1070332092796 0.0542660753554828 38.1069889227469 
! Port Impedance         50               0                50               0                
1.816                          0.998233034151421 -93.9341940974672 2.54126323961949E-06 175.131134897576 2.54126323955453E-06 175.131134897451 0.998237041272821 -94.0105898057087 
! Gamma         0.0543216934082547 38.1154226421342 0.0542721137910034 38.1153783508824 
! Port Impedance         50               0                50               0                
1.8164                         0.998225453879567 -94.0407817239824 2.59656288752867E-06 175.022170749329 2.59656288753999E-06 175.022170749961 0.998229497680783 -94.117106795737 
! Gamma         0.0543277360728827 38.1238120743214 0.0542781515627394 38.1237677783511 
! Port Impedance         50               0                50               0                
1.8168                         0.998217806883345 -94.1479166139987 2.65325163826248E-06 174.912644120851 2.65325163822558E-06 174.912644120556 0.998221887964009 -94.224169253846 
! Gamma         0.0543337780733724 38.1322015058417 0.0542841886709099 38.1321572051532 
! Port Impedance         50               0                50               0                
1.8172                         0.998210092313232 -94.2556040413829 2.71136912618405E-06 174.802549589861 2.71136912614924E-06 174.802549589868 0.998214211284949 -94.3317824169308 
! Gamma         0.0543398194099429 38.1405909366951 0.054290225115734 38.1405466312889 
! Port Impedance         50               0                50               0                
1.8176                         0.998202309305745 -94.3638493498375 2.7709562537168E-06 174.691881666812 2.77095625367811E-06 174.691881666882 0.998206466792367 -94.4399515908858 
! Gamma         0.0543458600828131 38.148980366882  0.0542962608974305 38.1489360567585 
! Port Impedance         50               0                50               0                
1.818                          0.998194456983152 -94.4726579540798 2.83205523617125E-06 174.580634787354 2.83205523619405E-06 174.58063478846  0.998198653621072 -94.5486821517616 
! Gamma         0.0543519000922018 38.1573697964025 0.054302296016218 38.1573254815621 
! Port Impedance         50               0                50               0                
1.8184                         0.998186534453186 -94.5820353410464 2.89470964887982E-06 174.468803314336 2.89470964880508E-06 174.46880331454  0.998190770891633 -94.6579795469488 
! Gamma         0.0543579394383277 38.1657592252568 0.0543083304723151 38.1657149057001 
! Port Impedance         50               0                50               0                
1.8188                         0.998178540808748 -94.6919870711218 2.95896447509588E-06 174.356381533112 2.95896447494344E-06 174.356381533297 0.998182817710092 -94.7678492963829 
! Gamma         0.0543639781214094 38.1741486534453 0.05431436426594 38.1741043291725 
! Port Impedance         50               0                50               0                
1.8192                         0.998170475127607 -94.8025187793929 3.02486615710184E-06 174.243363653818 3.0248661570455E-06 174.243363653777 0.99817479316767 -94.8782969937769 
! Gamma         0.0543700161416653 38.182538080968  0.0543203973973111 38.1824937519797 
! Port Impedance         50               0                50               0                
1.8196                         0.998162336472084 -94.9136361769296 3.09246264864916E-06 174.129743809363 3.0924626485843E-06 174.12974380891  0.998166696340464 -94.9893283078773 
! Gamma         0.0543760534993137 38.1909275078252 0.0543264298666463 38.1908831741219 
! Port Impedance         50               0                50               0                
1.82                           0.998154123888738 -95.025345052092 3.1618034691977E-06 174.015516050326 3.16180346909898E-06 174.015516050783 0.998158526289141 -95.1009489837476 
! Gamma         0.0543820901945729 38.1993169340171 0.0543324616741637 38.1992725955992 
! Port Impedance         50               0                50               0                
1.8204                         0.998145836408041 -95.1376512718662 3.23293976083117E-06 173.900674349526 3.23293976077558E-06 173.900674349863 0.998150282058616 -95.213164844078 
! Gamma         0.0543881262276609 38.207706359544  0.054338492820081 38.207662016412  
! Port Impedance         50               0                50               0                
1.8208                         0.998137473044042 -95.2505607832266 3.30592434746825E-06 173.785212597824 3.30592434744939E-06 173.785212597974 0.998141962677734 -95.3259817905232 
! Gamma         0.0543941615987957 38.2160957844061 0.0543445233046158 38.2160514365603 
! Port Impedance         50               0                50               0                
1.8212                         0.998129032794025 -95.3640796145285 3.38081179589616E-06 173.669124599815 3.3808117958003E-06 173.669124599634 0.998133567158931 -95.4394058050671 
! Gamma         0.0544001963081951 38.2244852086036 0.0543505531279856 38.2244408560446 
! Port Impedance         50               0                50               0                
1.8216                         0.998120514638159 -95.4782138769298 3.45765847965053E-06 173.552404077627 3.45765847967505E-06 173.552404077733 0.998125094497899 -95.5534429514178 
! Gamma         0.0544062303560768 38.2328746321366 0.0543565822904079 38.2328302748649 
! Port Impedance         50               0                50               0                
1.822                          0.998111917539141 -95.592969765843 3.53652264573769E-06 173.435044666184 3.53652264566256E-06 173.435044666572 0.998116543673234 -95.6680993764315 
! Gamma         0.0544122637426585 38.2412640550055 0.0543626107920997 38.2412196930215 
! Port Impedance         50               0                50               0                
1.8224                         0.998103240441823 -95.7083535624185 3.61746448323557E-06 173.317039912622 3.61746448315572E-06 173.317039913106 0.99810791364608 -95.7833813115664 
! Gamma         0.0544182964681575 38.2496534772105 0.0543686386332783 38.2496091105146 
! Port Impedance         50               0                50               0                
1.8228                         0.99809448227284 -95.8243716350598 3.7005461954307E-06 173.198383273264 3.70054619543445E-06 173.198383273723 0.998099203359762 -95.8992950743686 
! Gamma         0.0544243285327914 38.2580428987517 0.0543746658141605 38.2579985273444 
! Port Impedance         50               0                50               0                
1.8232                         0.998085641940218 -95.941030440972 3.78583207476904E-06 173.079068116821 3.78583207472668E-06 173.079068116632 0.998090411739407 -96.0158470699888 
! Gamma         0.0544303599367772 38.2664323196294 0.0543806923349632 38.2663879435112 
! Port Impedance         50               0                50               0                
1.8236                         0.99807671833298 -96.0583365277426 3.87338858043227E-06 172.95908771467  3.87338858033876E-06 172.959087714445 0.998081537691567 -96.1330437927331 
! Gamma         0.0544363906803321 38.2748217398437 0.0543867181959031 38.2747773590152 
! Port Impedance         50               0                50               0                
1.824                          0.998067710320741 -96.1762965349582 3.96328441944758E-06 172.838435246222 3.96328441939364E-06 172.838435246496 0.998072580103814 -96.2508918276456 
! Gamma         0.0544424207636731 38.2832111593951 0.0543927433971968 38.2831667738566 
! Port Impedance         50               0                50               0                
1.8244                         0.998058616753284 -96.2949171958557 4.05559063136836E-06 172.717103795201 4.05559063130144E-06 172.717103795655 0.998063537844343 -96.369397852127 
! Gamma         0.0544484501870171 38.2916005782835 0.0543987679390606 38.2915561880356 
! Port Impedance         50               0                50               0                
1.8248                         0.99804943646014 -96.4142053390101 4.15038067572326E-06 172.595086348221 4.15038067566794E-06 172.595086348582 0.998054409761556 -96.4885686375873 
! Gamma         0.0544544789505808 38.2999899965093 0.0544047918217109 38.2999456015524 
! Port Impedance         50               0                50               0                
1.8252                         0.998040168250145 -96.5341678900598 4.24773052392963E-06 172.472375788318 4.24773052391989E-06 172.472375788552 0.99804519468363 -96.6084110511361 
! Gamma         0.0544605070545809 38.3083794140727 0.0544108150453639 38.3083350144073 
! Port Impedance         50               0                50               0                
1.8256                         0.998030810910989 -96.6548118734691 4.34771875446021E-06 172.348964902566 4.34771875436724E-06 172.348964902894 0.998035891418088 -96.7289320573079 
! Gamma         0.0544665344992339 38.3167688309739 0.0544168376102356 38.3167244266005 
! Port Impedance         50               0                50               0                
1.826                          0.998021363208757 -96.7761444143316 4.4504266518743E-06 172.224846371266 4.45042665186675E-06 172.224846371976 0.998026498751347 -96.8501387198278 
! Gamma         0.0544725612847561 38.3251582472131 0.054422859516542 38.3251138381321 
! Port Impedance         50               0                50               0                
1.8264                         0.998011823887451 -96.8981727402117 4.55593831097628E-06 172.100012770306 4.5559383109527E-06 172.100012770738 0.998017015448259 -96.9720382034148 
! Gamma         0.0544785874113639 38.3335476627905 0.0544288807644987 38.3335032490025 
! Port Impedance         50               0                50               0                
1.8268                         0.998002191668507 -97.0209041830301 4.66434074404352E-06 171.974456569498 4.66434074396209E-06 171.974456569356 0.998007440251642 -97.0946377756261 
! Gamma         0.0544846128792734 38.3419370777063 0.0544349013543216 38.3418926592118 
! Port Impedance         50               0                50               0                
1.8272                         0.997992465250296 -97.1443461809889 4.77572399329716E-06 171.848170128468 4.77572399331308E-06 171.848170128405 0.997997771881792 -97.2179448087417 
! Gamma         0.0544906376887007 38.3503264919609 0.0544409212862262 38.3502820687603 
! Port Impedance         50               0                50               0                
1.8276                         0.99798264330761 -97.2685062805423 4.89018124851033E-06 171.721145696151 4.89018124842143E-06 171.721145696267 0.997988009035991 -97.3419667816927 
! Gamma         0.0544966618398616 38.3587159055543 0.0544469405604279 38.3586714776481 
! Port Impedance         50               0                50               0                
1.828                          0.997972724491133 -97.3933921384113 5.00780896850662E-06 171.593375408946 5.00780896845517E-06 171.593375409382 0.997978150387997 -97.4667112820312 
! Gamma         0.054502685332972 38.3671053184868 0.054452959177142 38.3670608858755 
! Port Impedance         50               0                50               0                
1.8284                         0.99796270742691 -97.5190115236442 5.12870700894165E-06 171.464851288356 5.12870700889988E-06 171.464851288329 0.997968194587515 -97.5921860079465 
! Gamma         0.0545087081682475 38.3754947307586 0.0544589771365838 38.3754502934427 
! Port Impedance         50               0                50               0                
1.8288                         0.997952590715782 -97.6453723197248 5.2529787549787E-06 171.335565237143 5.25297875498106E-06 171.335565237525 0.997958140259672 -97.7183987703262 
! Gamma         0.0545147303459038 38.38388414237   0.0544649944389682 38.38383970035   
! Port Impedance         50               0                50               0                
1.8292                         0.997942372932827 -97.7724825267282 5.38073125994649E-06 171.205509039881 5.38073125982786E-06 171.205509040343 0.997947986004455 -97.8453574948644 
! Gamma         0.0545207518661561 38.3922735533211 0.0544710110845103 38.3922291065975 
! Port Impedance         50               0                50               0                
1.8296                         0.997932052626765 -97.9003502635278 5.51207538932604E-06 171.074674358722 5.5120753892608E-06 171.074674358938 0.997937730396152 -97.9730702242186 
! Gamma         0.05452677272922 38.4006629636121 0.0544770270734249 38.4006185121854 
! Port Impedance         50               0                50               0                
1.83                           0.997921628319367 -98.0289837700521 5.64712597240921E-06 170.943052731137 5.64712597236435E-06 170.943052732012 0.997927371982768 -98.1015451202156 
! Gamma         0.0545327929353105 38.4090523732434 0.0544830424059267 38.4090079171141 
! Port Impedance         50               0                50               0                
1.8304                         0.997911098504834 -98.1583914095944 5.78600195896772E-06 170.810635570042 5.78600195889331E-06 170.810635570773 0.99791690928543 -98.2307904661088 
! Gamma         0.0545388124846429 38.4174417822151 0.0544890570822302 38.4173973213836 
! Port Impedance         50               0                50               0                
1.8308                         0.997900461649162 -98.2885816711774 5.92882658361966E-06 170.677414157947 5.92882658366287E-06 170.677414157939 0.997906340797773 -98.3608146688881 
! Gamma         0.0545448313774319 38.4258311905273 0.0544950711025501 38.4257867249943 
! Port Impedance         50               0                50               0                