! Touchstone file exported from HFSS 2023.1.0
!        File:           E:/3.%x6211%x7684%x8BBA%x6587/%x65B0%x6D4B%x8BD5/CoaxialF93.aedt
!        Generated:      9:33:52 %x4E0B%x5348  5%x6708 26, 2023
!        Design:         S6
!        Project:        CoaxialF93
!        Setup:          Setup1
!        Solution:       Sweep
!
! Variables:
!        Hin1 = 26mm
!        Hout = 29mm
!        L12 = 14.8mm
!        L13 = 14.8mm
!        L23 = 6.95mm
!        L34 = 12.5mm
!        L45 = 8.53mm
!        L46 = 3.83mm
!        L56 = 8.25mm
!        L67 = 12.5mm
!        L78 = 7.8mm
!        L79 = 13.2mm
!        L89 = 15.3mm
!        Rin = 5mm
!        Rin2 = 4mm
!        Rout = 15mm
!        Rport = 1.15mm
!        Rport2 = 3mm
!        Rportin = 0.5mm
!        d = 3mm
!        d01 = 2.9mm
!        d02 = 3.53mm
!        d03 = 3.66mm
!        d04 = 3.73mm
!        d05 = 3.73mm
!        d06 = 3.73mm
!        d07 = 3.66mm
!        d08 = 3.53mm
!        d09 = 2.9mm
!        d12 = 18mm
!        d12x = 15.5mm
!        d12y = 25mm
!        d23 = 18mm
!        d34 = 30mm
!        hport = 10.4mm
!        hport2 = 10.4mm
!        lport = 12mm
!        lport2 = 1mm
!        lport_2 = 12mm
!        m = 2mm
!        w12 = 12mm
!        w13 = 10mm
!        w34 = 12mm
!        w46 = 8.5mm
!
# GHz S MA R 50.000000
! Terminal data exported
! Port[1] = 1
! Port[2] = 2
1.8                            0.998487462557793 -90.0838145108328 1.21178658389293E-06 179.100353322968 1.21178658389293E-06 179.100353322968 0.998487924748595 -90.0974967004987 
! Gamma         0.054040356089151 37.779795684672  0.0540315756568594 37.7798022460023 
! Port Impedance         50               0                50               0                
1.8004                         0.998481977912259 -90.1722182514042 1.23505640155387E-06 179.010243218652 1.23505640157849E-06 179.0102432186   0.998482462516502 -90.1855741500304 
! Gamma         0.0540464200771621 37.7881851379824 0.0540376403239213 37.7881917004861 
! Port Impedance         50               0                50               0                
1.8008                         0.998476451576249 -90.2610049445729 1.25884108468505E-06 178.91974030283  1.25884108465354E-06 178.919740304416 0.998476958834517 -90.2740323626644 
! Gamma         0.0540524833927382 37.7965745906175 0.0540437043185496 37.7965811542944 
! Port Impedance         50               0                50               0                
1.8012                         0.998470883086516 -90.3501778220155 1.28315355497727E-06 178.828841255051 1.28315355498265E-06 178.828841256781 0.998471413242302 -90.3628745500153 
! Gamma         0.0540585460361031 37.8049640425776 0.0540497676409678 37.8049706074274 
! Port Impedance         50               0                50               0                
1.8016                         0.998465271973175 -90.4397401528685 1.30800709734035E-06 178.737542720124 1.30800709730358E-06 178.737542719273 0.99846582527292 -90.4521039609252 
! Gamma         0.0540646080074803 37.8133534938629 0.0540558302913992 37.8133600598854 
! Port Impedance         50               0                50               0                
1.802                          0.998459617759579 -90.5296952442806 1.33341537117391E-06 178.645841293933 1.33341537112911E-06 178.645841296224 0.998460194452714 -90.5417238820123 
! Gamma         0.0540706693070933 37.8217429444735 0.0540618922700671 37.8217495116686 
! Port Impedance         50               0                50               0                
1.8024                         0.9984539199622  -90.6200464419749 1.35939242211339E-06 178.553733545934 1.35939242206914E-06 178.553733546937 0.998454520301192 -90.6317376382303 
! Gamma         0.0540767299351655 37.8301323944097 0.0540679535771945 37.8301389627772 
! Port Impedance         50               0                50               0                
1.8028                         0.998448178090513 -90.7107971308208 1.38595269412832E-06 178.461215998982 1.38595269407834E-06 178.461215998926 0.998448802330903 -90.7221485934367 
! Gamma         0.0540827898919201 37.8385218436718 0.0540740142130044 37.8385284132115 
! Port Impedance         50               0                50               0                
1.8032                         0.998442391646865 -90.8019507354166 1.41311104205561E-06 178.368285131497 1.41311104206097E-06 178.368285132774 0.998443040047315 -90.8129601509721 
! Gamma         0.0540888491775802 37.84691129226   0.0540800741777196 37.8469178629716 
! Port Impedance         50               0                50               0                
1.8036                         0.998436560126355 -90.8935107206824 1.44088274463689E-06 178.274937388494 1.44088274461756E-06 178.274937389095 0.998437232948692 -90.9041757542502 
! Gamma         0.0540949077923688 37.8553007401745 0.0540861334715627 37.8553073120578 
! Port Impedance         50               0                50               0                
1.804                          0.998430683016696 -90.9854805924641 1.46928351757413E-06 178.181169164805 1.46928351759896E-06 178.181169165266 0.998431380525957 -90.9957988873575 
! Gamma         0.0541009657365088 37.8636901874155 0.0540921920947565 37.8636967604704 
! Port Impedance         50               0                50               0                
1.8044                         0.998424759798091 -91.0778638981482 1.49832952794729E-06 178.086976820969 1.49832952795312E-06 178.086976821521 0.998425482262568 -91.0878330756653 
! Gamma         0.0541070230102228 37.8720796339832 0.0540982500475234 37.8720862082095 
! Port Impedance         50               0                50               0                
1.8048                         0.998418789943095 -91.1706642272882 1.52803740807415E-06 177.992356665811 1.5280374080654E-06 177.992356668355 0.998419537634383 -91.1802818864519 
! Gamma         0.0541130796137335 37.8804690798779 0.0541043073300856 37.8804756552753 
! Port Impedance         50               0                50               0                
1.8052                         0.998412772916473 -91.2638852122417 1.55842427060757E-06 177.897304970527 1.55842427059452E-06 177.89730497086  0.998413546109517 -91.2731489295369 
! Gamma         0.0541191355472635 37.8888585250998 0.0541103639426655 37.8888651016682 
! Port Impedance         50               0                50               0                
1.8056                         0.998406708175065 -91.3575305288202 1.5895077238846E-06 177.801817958376 1.58950772389807E-06 177.801817957705 0.998407507148208 -91.3664378579264 
! Gamma         0.054125190811035 37.8972479696491 0.0541164198854851 37.8972545473882 
! Port Impedance         50               0                50               0                
1.806                          0.998400595167639 -91.4516038969504 1.62130588789401E-06 177.705891805236 1.62130588784133E-06 177.705891806573 0.998401420202672 -91.4601523684714 
! Gamma         0.0541312454052702 37.905637413526  0.0541224751587664 37.9056439924357 
! Port Impedance         50               0                50               0                
1.8064                         0.998394433334744 -91.5461090813479 1.65383741044529E-06 177.60952264837  1.65383741047042E-06 177.609522648796 0.998395284716955 -91.554296202537 
! Gamma         0.0541372993301913 37.9140268567308 0.0541285297627313 37.9140334368109 
! Port Impedance         50               0                50               0                
1.8068                         0.998388222108562 -91.6410498922034 1.68712148479839E-06 177.512706570434 1.68712148482519E-06 177.5127065696   0.998389100126784 -91.6488731466854 
! Gamma         0.0541433525860203 37.9224162992637 0.0541345836976015 37.9224228805139 
! Port Impedance         50               0                50               0                
1.8072                         0.99838196091275 -91.7364301858815 1.72117786682472E-06 177.415439610269 1.7211778667869E-06 177.415439609621 0.998382865859418 -91.7438870333703 
! Gamma         0.054149405172979 37.9308057411248 0.0541406369635986 37.930812323545  
! Port Impedance         50               0                50               0                
1.8076                         0.998375649162287 -91.8322538656336 1.75602689331269E-06 177.317717756967 1.7560268933919E-06 177.317717755875 0.998376581333487 -91.8393417416459 
! Gamma         0.0541554570912893 37.9391951823145 0.0541466895609441 37.9392017659045 
! Port Impedance         50               0                50               0                
1.808                          0.998369286263315 -91.9285248823223 1.79168950146264E-06 177.219536954138 1.7916895014969E-06 177.219536952947 0.998370245958836 -91.9352411978877 
! Gamma         0.0541615083411726 37.947584622833  0.0541527414898594 37.9475912075926 
! Port Impedance         50               0                50               0                
1.8084                         0.998362871612968 -92.0252472351617 1.82818724793295E-06 177.120893089778 1.82818724794001E-06 177.120893089432 0.998363859136358 -92.031589376528 
! Gamma         0.0541675589228506 37.9559740626804 0.0541587927505657 37.9559806486094 
! Port Impedance         50               0                50               0                
1.8088                         0.998356404599213 -92.12242497247  1.8655423293017E-06 177.021782008156 1.86554232933688E-06 177.021782006659 0.998357420257834 -92.128390300805 
! Gamma         0.0541736088365446 37.9643635018571 0.0541648433432841 37.9643700889552 
! Port Impedance         50               0                50               0                
1.8092                         0.998349884600675 -92.2200621924376 1.90377760343338E-06 176.9221994955   1.9037776034317E-06 176.922199496433 0.998350928705757 -92.2256480435259 
! Gamma         0.0541796580824757 37.9727529403631 0.0541708932682357 37.9727595286302 
! Port Impedance         50               0                50               0                
1.8096                         0.99834331098646 -92.3181630439087 1.94291661091873E-06 176.822141292744 1.94291661093373E-06 176.822141291752 0.99834438385316 -92.3233667278452 
! Gamma         0.0541857066608653 37.9811423781988 0.0541769425256414 37.9811489676347 
! Port Impedance         50               0                50               0                
1.81                           0.998336683115979 -92.4167317271785 1.98298359795763E-06 176.721603082154 1.9829835979928E-06 176.721603081023 0.998337785063437 -92.4215505280567 
! Gamma         0.0541917545719342 37.9895318153644 0.0541829911157218 37.9895384059689 
! Port Impedance         50               0                50               0                
1.8104                         0.998330000338769 -92.5157724948066 2.02400353967605E-06 176.620580492923 2.02400353972831E-06 176.620580493197 0.998331131690166 -92.5202036704026 
! Gamma         0.0541978018159033 37.99792125186   0.0541890390386977 37.9979278436329 
! Port Impedance         50               0                50               0                
1.8108                         0.998323261994294 -92.6152896524439 2.06600216461519E-06 176.519069105844 2.06600216468481E-06 176.519069104308 0.998324423076915 -92.6193304338965 
! Gamma         0.0542038483929935 38.006310687686  0.0541950862947896 38.0063172806271 
! Port Impedance         50               0                50               0                
1.8112                         0.99831646741177 -92.7152875596775 2.10900597970267E-06 176.417064437054 2.10900597971064E-06 176.417064436481 0.998317658557058 -92.7189351511629 
! Gamma         0.0542098943034253 38.0147001228425 0.0542011328842179 38.0147067169516 
! Port Impedance         50               0                50               0                
1.8116                         0.998309615909954 -92.815770630891 2.15304229634469E-06 176.31456195401  2.15304229640667E-06 176.314561953186 0.99831083745358 -92.8190222092934 
! Gamma         0.0542159395474193 38.0230895573297 0.0542071788072028 38.0230961526066 
! Port Impedance         50               0                50               0                
1.812                          0.998302706796956 -92.9167433361416 2.19813925792645E-06 176.211557061794 2.19813925790969E-06 176.211557060501 0.998303959078876 -92.9195960507189 
! Gamma         0.0542219841251959 38.0314789911479 0.0542132240639646 38.0314855875925 
! Port Impedance         50               0                50               0                
1.8124                         0.998295739370028 -93.0182102020551 2.24432586732789E-06 176.108045110083 2.24432586731049E-06 176.108045109068 0.998297022734547 -93.0206611740995 
! Gamma         0.0542280280369753 38.0398684242973 0.0542192686547232 38.0398750219093 
! Port Impedance         50               0                50               0                
1.8128                         0.998288712915359 -93.1201758127373 2.29163201650745E-06 176.004021386882 2.29163201654396E-06 176.004021385853 0.998290027711196 -93.1222221352318 
! Gamma         0.0542340712829776 38.0482578567782 0.0542253125796987 38.0482644555574 
! Port Impedance         50               0                50               0                
1.8132                         0.998281626707856 -93.2226448107039 2.34008851656635E-06 175.899481124296 2.34008851654192E-06 175.899481123427 0.998282973288212 -93.2242835479732 
! Gamma         0.054240113863423 38.0566472885906 0.0542313558391107 38.0566538885369 
! Port Impedance         50               0                50               0                
1.8136                         0.99827448001093 -93.3256218978296 2.38972712891333E-06 175.794419489683 2.38972712892105E-06 175.794419489373 0.998275858733553 -93.3268500851858 
! Gamma         0.0542461557785313 38.065036719735  0.0542373984331791 38.0650433208481 
! Port Impedance         50               0                50               0                
1.814                          0.998267272076272 -93.429111836314 2.44058059811876E-06 175.688831590067 2.44058059817213E-06 175.68883158825  0.998268683303524 -93.4299264796979 
! Gamma         0.0542521970285222 38.0734261502114 0.0542434403621233 38.0734327524912 
! Port Impedance         50               0                50               0                
1.8144                         0.99826000214362 -93.5331194496689 2.49268268550986E-06 175.582712466418 2.49268268559397E-06 175.582712465707 0.998261446242547 -93.5335175252855 
! Gamma         0.0542582376136155 38.0818155800201 0.0542494816261628 38.0818221834664 
! Port Impedance         50               0                50               0                
1.8148                         0.998252669440528 -93.6376496237238 2.54606820407172E-06 175.476057102401 2.5460682041048E-06 175.476057100769 0.99825414678293 -93.6376280776728 
! Gamma         0.0542642775340308 38.0902050091613 0.054255522225517 38.0902116137739 
! Port Impedance         50               0                50               0                
1.8152                         0.998245273182126 -93.7427073076522 2.60077305490271E-06 175.368860407408 2.60077305493367E-06 175.368860406444 0.99824678414463 -93.7422630555534 
! Gamma         0.0542703167899873 38.0985944376353 0.0542615621604049 38.098601043414  
! Port Impedance         50               0                50               0                
1.8156                         0.998237812570874 -93.8482975150186 2.65683426504699E-06 175.261117231484 2.65683426510643E-06 175.261117230331 0.998239357535005 -93.8474274416309 
! Gamma         0.0542763553817044 38.1069838654422 0.0542676014310459 38.1069904723868 
! Port Impedance         50               0                50               0                
1.816                          0.998230286796311 -93.9544253248463 2.71429002648424E-06 175.152822355713 2.71429002651818E-06 175.152822354136 0.998231866148565 -93.9531262836822 
! Gamma         0.0542823933094013 38.1153732925823 0.0542736400376587 38.1153799006927 
! Port Impedance         50               0                50               0                
1.8164                         0.998222695034797 -94.0610958827069 2.77317973683076E-06 175.043970491228 2.77317973685703E-06 175.043970489918 0.998224309166718 -94.059364695641 
! Gamma         0.0542884305732971 38.1237627190559 0.0542796779804622 38.1237693283317 
! Port Impedance         50               0                50               0                
1.8168                         0.99821503644925 -94.1683144018324 2.83354404159977E-06 174.934556280195 2.83354404168454E-06 174.934556279856 0.998216685757507 -94.1661478587039 
! Gamma         0.0542944671736105 38.132152144863  0.0542857152596753 38.1321587553042 
! Port Impedance         50               0                50               0                
1.8172                         0.998207310188881 -94.2760861642491 2.89542487823677E-06 174.824574294884 2.89542487829923E-06 174.824574293412 0.998208995075339 -94.2734810224591 
! Gamma         0.0543005031105606 38.140541570004  0.0542917518755165 38.1405481816104 
! Port Impedance         50               0                50               0                
1.8176                         0.99819951538891 -94.3844165219359 2.95886552116637E-06 174.71401903503  2.95886552125476E-06 174.714019032619 0.998201236260719 -94.3813695060382 
! Gamma         0.054306538384366 38.1489309944791 0.0542977878282042 38.1489376072504 
! Port Impedance         50               0                50               0                
1.818                          0.998191651170289 -94.4933108980054 3.02391062972045E-06 174.602884925713 3.02391062973894E-06 174.602884924817 0.998193408439958 -94.4898186992915 
! Gamma         0.0543125729952452 38.1573204182884 0.054303823117957 38.1573270322245 
! Port Impedance         50               0                50               0                
1.8184                         0.998183716639414 -94.60277478791  3.09060629678768E-06 174.491166320263 3.09060629680312E-06 174.491166319997 0.998185510724892 -94.5988340639882 
! Gamma         0.0543186069434167 38.1657098414323 0.054309857744993 38.165716456533  
! Port Impedance         50               0                50               0                
1.8188                         0.998175710887823 -94.7128137606725 3.1590001001851E-06 174.37885749337  3.15900010017983E-06 174.378857493041 0.998177542212584 -94.7084211350408 
! Gamma         0.0543246402290988 38.1740992639109 0.0543158917095304 38.174105880176  
! Port Impedance         50               0                50               0                
1.8192                         0.998167632991899 -94.823433460143 3.22914115555198E-06 174.265952646006 3.22914115559701E-06 174.265952645553 0.998169501985027 -94.8185855217553 
! Gamma         0.0543306728525097 38.1824886857244 0.0543219250117872 38.1824953031537 
! Port Impedance         50               0                50               0                
1.8196                         0.998159482012555 -94.9346396062812 3.30108017179387E-06 174.152445898963 3.30108017178594E-06 174.152445897901 0.998161389108826 -94.9293329091078 
! Gamma         0.0543367048138675 38.1908781068731 0.0543279576519813 38.1908847254664 
! Port Impedance         50               0                50               0                
1.82                           0.998151256994915 -95.0464379964662 3.37486950790072E-06 174.038331293329 3.37486950798465E-06 174.038331291271 0.998153202634891 -95.040669059047 
! Gamma         0.0543427361133902 38.1992675273572 0.0543339896303306 38.1992741471143 
! Port Impedance         50               0                50               0                
1.8204                         0.998142956967993 -95.1588345068337 3.45056323334924E-06 173.923602787759 3.45056323339542E-06 173.923602787247 0.998144941598103 -95.1525998118257 
! Gamma         0.0543487667512957 38.2076569471768 0.0543400209470526 38.2076635680977 
! Port Impedance         50               0                50               0                
1.8208                         0.998134580944354 -95.2718350936412 3.52821718908282E-06 173.808254260814 3.52821718908396E-06 173.808254260641 0.998136605016989 -95.2651310873584 
! Gamma         0.0543547967278015 38.2160463663323 0.054346051602365 38.2160529884166 
! Port Impedance         50               0                50               0                
1.8212                         0.998126127919773 -95.3854457946625 3.60788905282223E-06 173.692279507349 3.60788905290296E-06 173.69227950609  0.998128191893375 -95.3782688866099 
! Gamma         0.0543608260431254 38.2244357848239 0.0543520815964851 38.2244424080715 
! Port Impedance         50               0                50               0                
1.8216                         0.998117596872883 -95.4996727306117 3.68963840568324E-06 173.575672234543 3.68963840571949E-06 173.575672234522 0.99811970121204 -95.4920192930116 
! Gamma         0.0543668546974848 38.2328252026516 0.0543581109296304 38.2328318270624 
! Port Impedance         50               0                50               0                
1.822                          0.998108986764819 -95.6145221065973 3.77352680186263E-06 173.458426064833 3.77352680192908E-06 173.458426063711 0.998111131940359 -95.606388473909 
! Gamma         0.0543728826910972 38.2412146198159 0.0543641396020179 38.2412212453896 
! Port Impedance         50               0                50               0                
1.8224                         0.998100296538844 -95.7300002136085 3.85961784142805E-06 173.340534530739 3.85961784147104E-06 173.340534529896 0.998102483027932 -95.7213826820408 
! Gamma         0.0543789100241797 38.2496040363169 0.0543701676138649 38.2496106630533 
! Port Impedance         50               0                50               0                
1.8228                         0.998091525119976 -95.8461134300322 3.94797724548137E-06 173.221991074846 3.94797724550937E-06 173.2219910741   0.998093753406211 -95.8370082570488 
! Gamma         0.0543849366969494 38.2579934521548 0.0543761949653882 38.2580000800537 
! Port Impedance         50               0                50               0                
1.8232                         0.998082671414597 -95.9628682232037 4.03867293483399E-06 173.102789050953 4.03867293484186E-06 173.102789050032 0.998084941988112 -95.953271627021 
! Gamma         0.0543909627096234 38.2663828673298 0.0543822216568047 38.2663894963911 
! Port Impedance         50               0                50               0                
1.8236                         0.998073734310058 -96.080271150991 4.13177511175883E-06 172.982921714836 4.13177511181037E-06 172.982921714822 0.998076047667622 -96.0701793100682 
! Gamma         0.0543969880624185 38.2747722818421 0.0543882476883312 38.2747789120657 
! Port Impedance         50               0                50               0                
1.824                          0.998064712674269 -96.1983288634129 4.22735634498112E-06 172.862382232451 4.22735634499791E-06 172.86238223223  0.99806706931939 -96.1877379159354 
! Gamma         0.0544030127555516 38.2831616956921 0.0543942730601843 38.2831683270776 
! Port Impedance         50               0                50               0                
1.8244                         0.998055605355285 -96.3170481042935 4.32549165813205E-06 172.741163670052 4.32549165813792E-06 172.741163667906 0.998058005798312 -96.3059541476477 
! Gamma         0.0544090367892393 38.2915511088798 0.0544002977725805 38.2915577414272 
! Port Impedance         50               0                50               0                
1.8248                         0.998046411180875 -96.4364357129524 4.42625862218808E-06 172.6192589955   4.42625862223244E-06 172.619258994037 0.998048855939109 -96.424834803193 
! Gamma         0.054415060163698 38.2999405214055 0.0544063218257362 38.2999471551146 
! Port Impedance         50               0                50               0                
1.8252                         0.998037128958083 -96.5564986259325 4.52973745128932E-06 172.496661077156 4.52973745133543E-06 172.496661077021 0.998039618555882 -96.5443867772417 
! Gamma         0.0544210828791442 38.3083299332695 0.0544123452198676 38.30833656814   
! Port Impedance         50               0                50               0                
1.8256                         0.998027757472777 -96.6772438787656 4.6360111027865E-06 172.373362684001 4.63601110287571E-06 172.37336268267  0.998030292441668 -96.6646170629045 
! Gamma         0.0544271049357942 38.3167193444719 0.0544183679551909 38.3167259805036 
! Port Impedance         50               0                50               0                
1.826                          0.998018295489188 -96.7986786077779 4.74516538135815E-06 172.249356476863 4.74516538141975E-06 172.249356476058 0.998020876367977 -96.7855327535296 
! Gamma         0.0544331263338641 38.3251087550129 0.0544243900319222 38.3251153922058 
! Port Impedance         50               0                50               0                
1.8264                         0.998008741749433 -96.920810051935 4.85728904757365E-06 172.124635013303 4.85728904761116E-06 172.124635012032 0.998011369084321 -96.9071410445393 
! Gamma         0.05443914707357 38.3334981648928 0.0544304114502774 38.3335048032467 
! Port Impedance         50               0                50               0                
1.8268                         0.99799909497303 -97.0436455547297 4.97247393082633E-06 171.999190743864 4.97247393091478E-06 171.99919074281  0.998001769317727 -97.0294492353092 
! Gamma         0.0544451671551278 38.3418875741119 0.0544364322104723 38.3418942136264 
! Port Impedance         50               0                50               0                
1.8272                         0.997989353856398 -97.1671925661104 5.09081504736074E-06 171.873016007336 5.09081504743138E-06 171.873016005358 0.997992075772242 -97.1524647310883 
! Gamma         0.0544511865787534 38.3502769826702 0.0544424523127225 38.3502836233453 
! Port Impedance         50               0                50               0                
1.8276                         0.997979517072343 -97.2914586444548 5.21241072276297E-06 171.746103032464 5.21241072278585E-06 171.746103031308 0.99798228712842 -97.2761950449635 
! Gamma         0.0544572053446624 38.358666390568  0.0544484717572437 38.3586730324036 
! Port Impedance         50               0                50               0                
1.828                          0.997969583269533 -97.416451458587 5.33736272019282E-06 171.618443934177 5.3373627202847E-06 171.618443933051 0.997972402042797 -97.4006477998687 
! Gamma         0.0544632234530704 38.3670557978057 0.0544544905442514 38.3670624408014 
! Port Impedance         50               0                50               0                
1.8284                         0.997959551071957 -97.5421787898417 5.46577637378171E-06 171.490030711006 5.4657763738069E-06 171.49003070978  0.997962419147355 -97.5258307306388 
! Gamma         0.0544692409041928 38.3754452043832 0.0544605086739609 38.375451848539  
! Port Impedance         50               0                50               0                
1.8288                         0.997949419078369 -97.668648534175 5.59776072763935E-06 171.360855243303 5.5977607276907E-06 171.360855242437 0.997952337048967 -97.6517516861128 
! Gamma         0.054475257698245 38.383834610301  0.0544665261465874 38.3838412556166 
! Port Impedance         50               0                50               0                
1.8292                         0.99793918586172 -97.7958687043243 5.73342868119757E-06 171.23090929189  5.73342868121557E-06 171.230909291725 0.997942154328831 -97.7784186312827 
! Gamma         0.0544812738354422 38.3922240155591 0.054472542962346 38.3922306620344 
! Port Impedance         50               0                50               0                
1.8296                         0.997928849968573 -97.9238474320169 5.87289714027736E-06 171.100184495453 5.87289714032588E-06 171.100184494846 0.997931869541884 -97.9058396494944 
! Gamma         0.0544872893159995 38.4006134201579 0.0544785591214518 38.4006200677926 
! Port Impedance         50               0                50               0                
1.83                           0.997918409918498 -98.0525929702316 6.01628717533037E-06 170.968672366148 6.01628717536819E-06 170.968672364815 0.997921481216208 -98.0340229446987 
! Gamma         0.0544933041401319 38.4090028240974 0.0544845746241197 38.4090094728915 
! Port Impedance         50               0                50               0                
1.8304                         0.99790786420346 -98.1821136955111 6.16372418588416E-06 170.836364289263 6.16372418594461E-06 170.836364288482 0.997910987852409 -98.1629768437541 
! Gamma         0.0544993183080542 38.4173922273781 0.0544905894705644 38.4173988773313 
! Port Impedance         50               0                50               0                
1.8308                         0.997897211287183 -98.3124181103297 6.31533807270909E-06 170.703251521766 6.31533807275203E-06 170.703251520691 0.997900387922991 -98.2927097987851 
! Gamma         0.0545053318199813 38.42578163      0.0544966036610006 38.4257882811122 
! Port Impedance         50               0                50               0                